# vtk DataFile Version 3.0
vtk output
ASCII
DATASET UNSTRUCTURED_GRID
POINTS 266 float
1.958145e-01	1.009093e-01	0.0	1.936790e-01	1.028496e-01	0.0	1.924671e-01	1.038195e-01	0.0	1.911782e-01	1.048095e-01	0.0	1.898431e-01	1.058582e-01	0.0	1.884320e-01	1.069248e-01	0.0	1.869083e-01	1.079534e-01	0.0	1.852790e-01	1.089422e-01	0.0	1.835840e-01	1.099470e-01	0.0	1.818370e-01	1.109833e-01	0.0	1.799952e-01	1.119664e-01	0.0	1.780439e-01	1.128438e-01	0.0	1.760249e-01	1.136823e-01	0.0	1.739709e-01	1.145419e-01	0.0	1.718352e-01	1.152819e-01	0.0	1.696388e-01	1.159218e-01	0.0	1.674194e-01	1.165535e-01	0.0	1.651600e-01	1.170775e-01	0.0	1.628637e-01	1.174375e-01	0.0	1.260719e-01	1.086992e-01	0.0	1.269797e-01	1.094985e-01	0.0	1.605698e-01	1.177939e-01	0.0	1.582739e-01	1.180487e-01	0.0	1.559830e-01	1.181135e-01	0.0	1.537164e-01	1.181192e-01	0.0	1.279634e-01	1.103152e-01	0.0	1.514825e-01	1.181423e-01	0.0	1.492905e-01	1.180431e-01	0.0	1.290238e-01	1.111498e-01	0.0	1.301716e-01	1.119870e-01	0.0	1.314345e-01	1.127851e-01	0.0	1.328038e-01	1.135455e-01	0.0	1.342680e-01	1.142838e-01	0.0	1.358527e-01	1.149299e-01	0.0	1.471572e-01	1.177821e-01	0.0	1.450942e-01	1.173976e-01	0.0	1.375256e-01	1.155470e-01	0.0	1.393010e-01	1.160730e-01	0.0	1.411541e-01	1.165716e-01	0.0	1.430929e-01	1.169868e-01	0.0	1.947940e-01	1.018775e-01	0.0	1.967588e-01	9.996526e-02	0.0	1.975647e-01	9.916217e-02	0.0	1.983788e-01	9.836709e-02	0.0	1.991850e-01	9.756403e-02	0.0	1.999670e-01	9.673730e-02	0.0	2.007223e-01	9.588605e-02	0.0	2.014544e-01	9.501471e-02	0.0	2.021714e-01	9.413077e-02	0.0	2.028863e-01	9.324507e-02	0.0	2.036067e-01	9.236385e-02	0.0	2.043213e-01	9.147795e-02	0.0	2.050158e-01	9.057625e-02	0.0	2.056857e-01	8.965606e-02	0.0	2.063318e-01	8.871909e-02	0.0	2.069609e-01	8.777065e-02	0.0	2.075875e-01	8.682054e-02	0.0	2.082210e-01	8.587508e-02	0.0	2.088524e-01	8.492826e-02	0.0	2.094686e-01	8.397167e-02	0.0	2.100618e-01	8.300067e-02	0.0	2.106328e-01	8.201653e-02	0.0	2.111835e-01	8.102106e-02	0.0	2.117207e-01	8.001827e-02	0.0	2.122551e-01	7.901418e-02	0.0	2.127966e-01	7.801399e-02	0.0	2.133414e-01	7.701578e-02	0.0	2.138792e-01	7.601388e-02	0.0	2.143994e-01	7.500295e-02	0.0	2.148980e-01	7.398139e-02	0.0	2.153791e-01	7.295164e-02	0.0	2.158473e-01	7.191615e-02	0.0	2.163072e-01	7.087712e-02	0.0	2.167629e-01	6.983648e-02	0.0	2.172187e-01	6.879609e-02	0.0	2.176779e-01	6.775744e-02	0.0	2.181376e-01	6.671925e-02	0.0	2.185919e-01	6.567896e-02	0.0	2.190351e-01	6.463417e-02	0.0	2.194666e-01	6.358470e-02	0.0	2.198900e-01	6.253226e-02	0.0	2.203094e-01	6.147851e-02	0.0	2.207277e-01	6.042463e-02	0.0	2.211459e-01	5.937100e-02	0.0	2.215648e-01	5.831794e-02	0.0	2.219844e-01	5.726554e-02	0.0	2.224034e-01	5.621319e-02	0.0	2.228195e-01	5.516009e-02	0.0	2.232319e-01	5.410585e-02	0.0	2.236422e-01	5.305118e-02	0.0	2.240527e-01	5.199697e-02	0.0	2.244644e-01	5.094360e-02	0.0	2.248756e-01	4.989042e-02	0.0	2.252841e-01	4.883663e-02	0.0	2.256905e-01	4.778243e-02	0.0	2.260996e-01	4.672969e-02	0.0	2.265118e-01	4.567861e-02	0.0	2.269237e-01	4.462786e-02	0.0	2.273348e-01	4.357721e-02	0.0	2.277457e-01	4.252697e-02	0.0	2.281565e-01	4.147718e-02	0.0	2.285672e-01	4.042784e-02	0.0	2.289778e-01	3.937894e-02	0.0	2.293883e-01	3.833048e-02	0.0	2.297985e-01	3.728246e-02	0.0	2.302086e-01	3.623489e-02	0.0	2.306185e-01	3.518780e-02	0.0	2.310283e-01	3.414119e-02	0.0	2.314381e-01	3.309511e-02	0.0	2.318477e-01	3.204954e-02	0.0	2.322571e-01	3.100448e-02	0.0	2.326662e-01	2.995985e-02	0.0	2.330748e-01	2.891562e-02	0.0	2.334828e-01	2.787172e-02	0.0	2.338899e-01	2.682814e-02	0.0	2.342967e-01	2.578500e-02	0.0	2.347035e-01	2.474252e-02	0.0	2.351107e-01	2.370082e-02	0.0	2.355173e-01	2.265955e-02	0.0	2.359221e-01	2.161820e-02	0.0	2.363243e-01	2.057652e-02	0.0	2.367255e-01	1.953514e-02	0.0	2.371277e-01	1.849482e-02	0.0	2.375312e-01	1.745565e-02	0.0	2.379326e-01	1.641639e-02	0.0	2.383279e-01	1.537554e-02	0.0	2.387129e-01	1.433153e-02	0.0	2.390890e-01	1.328496e-02	0.0	2.394665e-01	1.223965e-02	0.0	2.398485e-01	1.119671e-02	0.0	2.402264e-01	1.015303e-02	0.0	2.405915e-01	9.105572e-03	0.0	2.409431e-01	8.054255e-03	0.0	2.412846e-01	7.000363e-03	0.0	2.416192e-01	5.945033e-03	0.0	2.419496e-01	4.889170e-03	0.0	2.422742e-01	3.832945e-03	0.0	2.422602e-01	2.732255e-03	0.0	2.419422e-01	1.680078e-03	0.0	2.413341e-01	7.643785e-04	0.0	2.404994e-01	6.567075e-05	0.0	2.399384e-01	-1.854203e-04	0.0	2.393286e-01	-3.867350e-04	0.0	2.386548e-01	-4.395835e-04	0.0	2.379522e-01	-3.792023e-04	0.0	2.372300e-01	-2.149890e-04	0.0	2.365616e-01	1.747354e-04	0.0	2.359167e-01	6.630787e-04	0.0	2.354249e-01	1.353202e-03	0.0	2.349178e-01	2.079569e-03	0.0	2.343947e-01	2.841773e-03	0.0	2.338623e-01	3.645286e-03	0.0	2.333062e-01	4.481493e-03	0.0	2.327249e-01	5.350267e-03	0.0	2.321232e-01	6.255708e-03	0.0	2.315035e-01	7.200159e-03	0.0	2.308540e-01	8.176365e-03	0.0	2.301761e-01	9.185842e-03	0.0	2.294727e-01	1.023072e-02	0.0	2.287393e-01	1.130830e-02	0.0	2.279716e-01	1.241558e-02	0.0	2.271667e-01	1.355016e-02	0.0	2.263294e-01	1.471501e-02	0.0	2.254650e-01	1.591336e-02	0.0	2.245706e-01	1.714238e-02	0.0	2.236306e-01	1.838922e-02	0.0	2.226368e-01	1.964578e-02	0.0	2.216237e-01	2.093732e-02	0.0	2.205754e-01	2.224939e-02	0.0	2.194738e-01	2.356494e-02	0.0	2.183413e-01	2.489972e-02	0.0	2.171928e-01	2.626373e-02	0.0	2.160156e-01	2.764337e-02	0.0	2.147941e-01	2.902177e-02	0.0	2.135287e-01	3.039514e-02	0.0	2.122276e-01	3.176667e-02	0.0	2.109020e-01	3.314275e-02	0.0	2.095663e-01	3.453298e-02	0.0	2.082260e-01	3.593860e-02	0.0	2.068687e-01	3.734316e-02	0.0	2.054855e-01	3.873341e-02	0.0	2.040861e-01	4.011394e-02	0.0	2.026820e-01	4.149165e-02	0.0	2.012786e-01	4.286716e-02	0.0	1.998787e-01	4.423873e-02	0.0	1.984819e-01	4.560131e-02	0.0	1.970869e-01	4.694882e-02	0.0	1.956932e-01	4.827634e-02	0.0	1.943050e-01	4.958369e-02	0.0	1.929321e-01	5.087686e-02	0.0	1.915775e-01	5.215524e-02	0.0	1.902393e-01	5.341279e-02	0.0	1.889153e-01	5.464362e-02	0.0	1.876032e-01	5.584167e-02	0.0	1.863010e-01	5.700123e-02	0.0	1.850101e-01	5.812080e-02	0.0	1.837401e-01	5.920827e-02	0.0	1.825003e-01	6.027217e-02	0.0	1.812953e-01	6.131572e-02	0.0	1.801212e-01	6.233275e-02	0.0	1.789740e-01	6.331689e-02	0.0	1.778504e-01	6.426325e-02	0.0	1.767493e-01	6.516925e-02	0.0	1.756701e-01	6.603310e-02	0.0	1.746129e-01	6.685416e-02	0.0	1.735824e-01	6.763796e-02	0.0	1.725846e-01	6.839231e-02	0.0	1.716242e-01	6.912373e-02	0.0	1.707017e-01	6.983357e-02	0.0	1.698054e-01	7.050686e-02	0.0	1.688616e-01	7.120076e-02	0.0	1.679178e-01	7.189504e-02	0.0	1.669758e-01	7.259179e-02	0.0	1.660316e-01	7.328582e-02	0.0	1.650813e-01	7.397137e-02	0.0	1.641229e-01	7.464572e-02	0.0	1.631581e-01	7.531075e-02	0.0	1.621886e-01	7.596873e-02	0.0	1.612160e-01	7.662184e-02	0.0	1.602416e-01	7.727213e-02	0.0	1.592670e-01	7.792163e-02	0.0	1.582921e-01	7.857036e-02	0.0	1.573151e-01	7.921538e-02	0.0	1.563337e-01	7.985300e-02	0.0	1.553495e-01	8.048577e-02	0.0	1.543679e-01	8.112173e-02	0.0	1.533830e-01	8.175187e-02	0.0	1.523930e-01	8.237309e-02	0.0	1.514034e-01	8.299380e-02	0.0	1.504141e-01	8.361417e-02	0.0	1.494244e-01	8.423267e-02	0.0	1.484336e-01	8.484831e-02	0.0	1.474404e-01	8.545878e-02	0.0	1.464413e-01	8.605822e-02	0.0	1.454344e-01	8.664293e-02	0.0	1.444244e-01	8.722072e-02	0.0	1.434164e-01	8.780022e-02	0.0	1.424082e-01	8.837789e-02	0.0	1.413955e-01	8.894565e-02	0.0	1.403734e-01	8.949448e-02	0.0	1.393386e-01	9.001652e-02	0.0	1.382962e-01	9.052133e-02	0.0	1.372554e-01	9.102686e-02	0.0	1.362109e-01	9.152214e-02	0.0	1.351631e-01	9.200780e-02	0.0	1.341159e-01	9.249182e-02	0.0	1.330567e-01	9.294636e-02	0.0	1.320148e-01	9.343553e-02	0.0	1.310009e-01	9.397835e-02	0.0	1.299865e-01	9.451742e-02	0.0	1.289946e-01	9.509367e-02	0.0	1.280359e-01	9.572161e-02	0.0	1.270951e-01	9.637271e-02	0.0	1.262321e-01	9.712220e-02	0.0	1.254107e-01	9.791150e-02	0.0	1.247290e-01	9.882539e-02	0.0	1.241545e-01	9.980474e-02	0.0	1.238457e-01	1.008975e-01	0.0	1.235755e-01	1.019995e-01	0.0	1.235461e-01	1.027315e-01	0.0	1.235724e-01	1.035154e-01	0.0	1.236680e-01	1.043459e-01	0.0	1.238757e-01	1.052153e-01	0.0	1.241697e-01	1.061192e-01	0.0	1.246764e-01	1.069957e-01	0.0	1.252599e-01	1.078996e-01	0.0	
CELLS 266	798
2	41	42	2	42	43	2	43	44	2	44	45	2	45	46	2	46	47	2	47	48	2	48	49	2	49	50	2	50	51	2	51	52	2	52	53	2	53	54	2	54	55	2	55	56	2	56	57	2	57	58	2	58	59	2	59	60	2	60	61	2	61	62	2	62	63	2	63	64	2	64	65	2	65	66	2	66	67	2	67	68	2	68	69	2	69	70	2	70	71	2	71	72	2	72	73	2	73	74	2	74	75	2	75	76	2	76	77	2	77	78	2	78	79	2	79	80	2	80	81	2	81	82	2	82	83	2	83	84	2	84	85	2	85	86	2	86	87	2	87	88	2	88	89	2	89	90	2	90	91	2	91	92	2	92	93	2	93	94	2	94	95	2	95	96	2	96	97	2	97	98	2	98	99	2	99	100	2	100	101	2	101	102	2	102	103	2	103	104	2	104	105	2	105	106	2	106	107	2	107	108	2	108	109	2	109	110	2	110	111	2	111	112	2	112	113	2	113	114	2	114	115	2	115	116	2	116	117	2	117	118	2	118	119	2	119	120	2	120	121	2	121	122	2	122	123	2	123	124	2	124	125	2	125	126	2	126	127	2	127	128	2	128	129	2	129	130	2	130	131	2	131	132	2	132	133	2	133	134	2	134	135	2	135	136	2	136	137	2	137	138	2	138	139	2	139	140	2	140	141	2	141	142	2	142	143	2	143	144	2	144	145	2	145	146	2	146	147	2	147	148	2	148	149	2	149	150	2	150	151	2	151	152	2	152	153	2	153	154	2	154	155	2	155	156	2	156	157	2	157	158	2	158	159	2	159	160	2	160	161	2	161	162	2	162	163	2	163	164	2	164	165	2	165	166	2	166	167	2	167	168	2	168	169	2	169	170	2	170	171	2	171	172	2	172	173	2	173	174	2	174	175	2	175	176	2	176	177	2	177	178	2	178	179	2	179	180	2	180	181	2	181	182	2	182	183	2	183	184	2	184	185	2	185	186	2	186	187	2	187	188	2	188	189	2	189	190	2	190	191	2	191	192	2	192	193	2	193	194	2	194	195	2	195	196	2	196	197	2	197	198	2	198	199	2	199	200	2	200	201	2	201	202	2	202	203	2	203	204	2	204	205	2	205	206	2	206	207	2	207	208	2	208	209	2	209	210	2	210	211	2	211	212	2	212	213	2	213	214	2	214	215	2	215	216	2	216	217	2	217	218	2	218	219	2	219	220	2	220	221	2	221	222	2	222	223	2	223	224	2	224	225	2	225	226	2	226	227	2	227	228	2	228	229	2	229	230	2	230	231	2	231	232	2	232	233	2	233	234	2	234	235	2	235	236	2	236	237	2	237	238	2	238	239	2	239	240	2	240	241	2	241	242	2	242	243	2	243	244	2	244	245	2	245	246	2	246	247	2	247	248	2	248	249	2	249	250	2	250	251	2	251	252	2	252	253	2	253	254	2	254	255	2	255	256	2	256	257	2	257	258	2	258	259	2	259	260	2	260	261	2	261	262	2	262	263	2	263	264	2	264	265	2	265	19	2	19	20	2	20	25	2	25	28	2	28	29	2	29	30	2	30	31	2	31	32	2	32	33	2	33	36	2	36	37	2	37	38	2	38	39	2	39	35	2	35	34	2	34	27	2	27	26	2	26	24	2	24	23	2	23	22	2	22	21	2	21	18	2	18	17	2	17	16	2	16	15	2	15	14	2	14	13	2	13	12	2	12	11	2	11	10	2	10	9	2	9	8	2	8	7	2	7	6	2	6	5	2	5	4	2	4	3	2	3	2	2	2	1	2	1	40	2	40	0	2	0	41	
CELL_TYPES 266
3	3	3	3	3	3	3	3	3	3	3	3	3	3	3	3	3	3	3	3	3	3	3	3	3	3	3	3	3	3	3	3	3	3	3	3	3	3	3	3	3	3	3	3	3	3	3	3	3	3	3	3	3	3	3	3	3	3	3	3	3	3	3	3	3	3	3	3	3	3	3	3	3	3	3	3	3	3	3	3	3	3	3	3	3	3	3	3	3	3	3	3	3	3	3	3	3	3	3	3	3	3	3	3	3	3	3	3	3	3	3	3	3	3	3	3	3	3	3	3	3	3	3	3	3	3	3	3	3	3	3	3	3	3	3	3	3	3	3	3	3	3	3	3	3	3	3	3	3	3	3	3	3	3	3	3	3	3	3	3	3	3	3	3	3	3	3	3	3	3	3	3	3	3	3	3	3	3	3	3	3	3	3	3	3	3	3	3	3	3	3	3	3	3	3	3	3	3	3	3	3	3	3	3	3	3	3	3	3	3	3	3	3	3	3	3	3	3	3	3	3	3	3	3	3	3	3	3	3	3	3	3	3	3	3	3	3	3	3	3	3	3	3	3	3	3	3	3	3	3	3	3	3	3	3	3	3	3	3	3	3	3	3	3	3	3	
POINT_DATA 266

SCALARS Density float 1
LOOKUP_TABLE default
1.454379e+00	1.517224e+00	1.593043e+00	1.639253e+00	1.638997e+00	1.652907e+00	1.705790e+00	1.776991e+00	1.802780e+00	1.803653e+00	1.838692e+00	1.913220e+00	1.943182e+00	1.959956e+00	2.007463e+00	2.048175e+00	2.061738e+00	2.101995e+00	2.147488e+00	2.589263e+00	2.591888e+00	2.159951e+00	2.190381e+00	2.243901e+00	2.268114e+00	2.577908e+00	2.269946e+00	2.289854e+00	2.558026e+00	2.530604e+00	2.506696e+00	2.488073e+00	2.462574e+00	2.445993e+00	2.326473e+00	2.369110e+00	2.430525e+00	2.416863e+00	2.403307e+00	2.389189e+00	1.462030e+00	1.470590e+00	1.472660e+00	1.434676e+00	1.375969e+00	1.309027e+00	1.264336e+00	1.243376e+00	1.245917e+00	1.250908e+00	1.237063e+00	1.197319e+00	1.151697e+00	1.113521e+00	1.099754e+00	1.113802e+00	1.122179e+00	1.124513e+00	1.099560e+00	1.067401e+00	1.033345e+00	1.007813e+00	9.999416e-01	1.014097e+00	1.033099e+00	1.049237e+00	1.057359e+00	1.065838e+00	1.085438e+00	1.120160e+00	1.162907e+00	1.203500e+00	1.238693e+00	1.268476e+00	1.295472e+00	1.316982e+00	1.336105e+00	1.356074e+00	1.372388e+00	1.387329e+00	1.401259e+00	1.414659e+00	1.427375e+00	1.439597e+00	1.451238e+00	1.462264e+00	1.472680e+00	1.482643e+00	1.492345e+00	1.501808e+00	1.510915e+00	1.519537e+00	1.527738e+00	1.535703e+00	1.543604e+00	1.551156e+00	1.558131e+00	1.564705e+00	1.571085e+00	1.577277e+00	1.583182e+00	1.588848e+00	1.594236e+00	1.599290e+00	1.604079e+00	1.608675e+00	1.613101e+00	1.617347e+00	1.621391e+00	1.625226e+00	1.628865e+00	1.632334e+00	1.635664e+00	1.638886e+00	1.642049e+00	1.645148e+00	1.648114e+00	1.650841e+00	1.653381e+00	1.656006e+00	1.658884e+00	1.661942e+00	1.664794e+00	1.667139e+00	1.669323e+00	1.671859e+00	1.675511e+00	1.680816e+00	1.686111e+00	1.690304e+00	1.694086e+00	1.698934e+00	1.705433e+00	1.712986e+00	1.720111e+00	1.727603e+00	1.723495e+00	1.728220e+00	1.724779e+00	1.766199e+00	1.769150e+00	1.770361e+00	1.745316e+00	1.733514e+00	1.724955e+00	1.671417e+00	1.602329e+00	1.517248e+00	1.613873e+00	1.713488e+00	1.782929e+00	1.850150e+00	1.899507e+00	1.939730e+00	1.980954e+00	2.021741e+00	2.055330e+00	2.086515e+00	2.117332e+00	2.146056e+00	2.170594e+00	2.191618e+00	2.212789e+00	2.236575e+00	2.261034e+00	2.276758e+00	2.289604e+00	2.308023e+00	2.323196e+00	2.333350e+00	2.346368e+00	2.363161e+00	2.379828e+00	2.392003e+00	2.399770e+00	2.406061e+00	2.414131e+00	2.425246e+00	2.438650e+00	2.450787e+00	2.459856e+00	2.468061e+00	2.477098e+00	2.487135e+00	2.497909e+00	2.508692e+00	2.518702e+00	2.527384e+00	2.535608e+00	2.544565e+00	2.554161e+00	2.563490e+00	2.572331e+00	2.579962e+00	2.585723e+00	2.590135e+00	2.594461e+00	2.599883e+00	2.606247e+00	2.612519e+00	2.618349e+00	2.623679e+00	2.627950e+00	2.631026e+00	2.632951e+00	2.634484e+00	2.636617e+00	2.639964e+00	2.643436e+00	2.645251e+00	2.647282e+00	2.649993e+00	2.652910e+00	2.655891e+00	2.658450e+00	2.660340e+00	2.661852e+00	2.663186e+00	2.664599e+00	2.666306e+00	2.668226e+00	2.670319e+00	2.672283e+00	2.673853e+00	2.675677e+00	2.677910e+00	2.679551e+00	2.681127e+00	2.683033e+00	2.685047e+00	2.687142e+00	2.689370e+00	2.691697e+00	2.693405e+00	2.694391e+00	2.695951e+00	2.697884e+00	2.699912e+00	2.701903e+00	2.703230e+00	2.703137e+00	2.703140e+00	2.703904e+00	2.703988e+00	2.704492e+00	2.703220e+00	2.701311e+00	2.703027e+00	2.704858e+00	2.705408e+00	2.709518e+00	2.712248e+00	2.719100e+00	2.725698e+00	2.736798e+00	2.747764e+00	2.768010e+00	2.772520e+00	2.772861e+00	2.755397e+00	2.743421e+00	2.725124e+00	2.703175e+00	2.669718e+00	2.638940e+00	2.613677e+00	
SCALARS X-Momentum float 1
LOOKUP_TABLE default
0.000000e+00	0.000000e+00	0.000000e+00	0.000000e+00	0.000000e+00	0.000000e+00	0.000000e+00	0.000000e+00	0.000000e+00	0.000000e+00	0.000000e+00	0.000000e+00	0.000000e+00	0.000000e+00	0.000000e+00	0.000000e+00	0.000000e+00	0.000000e+00	0.000000e+00	0.000000e+00	0.000000e+00	0.000000e+00	0.000000e+00	0.000000e+00	0.000000e+00	0.000000e+00	0.000000e+00	0.000000e+00	0.000000e+00	0.000000e+00	0.000000e+00	0.000000e+00	0.000000e+00	0.000000e+00	0.000000e+00	0.000000e+00	0.000000e+00	0.000000e+00	0.000000e+00	0.000000e+00	0.000000e+00	0.000000e+00	0.000000e+00	0.000000e+00	0.000000e+00	0.000000e+00	0.000000e+00	0.000000e+00	0.000000e+00	0.000000e+00	0.000000e+00	0.000000e+00	0.000000e+00	0.000000e+00	0.000000e+00	0.000000e+00	0.000000e+00	0.000000e+00	0.000000e+00	0.000000e+00	0.000000e+00	0.000000e+00	0.000000e+00	0.000000e+00	0.000000e+00	0.000000e+00	0.000000e+00	0.000000e+00	0.000000e+00	0.000000e+00	0.000000e+00	0.000000e+00	0.000000e+00	0.000000e+00	0.000000e+00	0.000000e+00	0.000000e+00	0.000000e+00	0.000000e+00	0.000000e+00	0.000000e+00	0.000000e+00	0.000000e+00	0.000000e+00	0.000000e+00	0.000000e+00	0.000000e+00	0.000000e+00	0.000000e+00	0.000000e+00	0.000000e+00	0.000000e+00	0.000000e+00	0.000000e+00	0.000000e+00	0.000000e+00	0.000000e+00	0.000000e+00	0.000000e+00	0.000000e+00	0.000000e+00	0.000000e+00	0.000000e+00	0.000000e+00	0.000000e+00	0.000000e+00	0.000000e+00	0.000000e+00	0.000000e+00	0.000000e+00	0.000000e+00	0.000000e+00	0.000000e+00	0.000000e+00	0.000000e+00	0.000000e+00	0.000000e+00	0.000000e+00	0.000000e+00	0.000000e+00	0.000000e+00	0.000000e+00	0.000000e+00	0.000000e+00	0.000000e+00	0.000000e+00	0.000000e+00	0.000000e+00	0.000000e+00	0.000000e+00	0.000000e+00	0.000000e+00	0.000000e+00	0.000000e+00	0.000000e+00	0.000000e+00	0.000000e+00	0.000000e+00	0.000000e+00	0.000000e+00	0.000000e+00	0.000000e+00	0.000000e+00	0.000000e+00	0.000000e+00	0.000000e+00	0.000000e+00	0.000000e+00	0.000000e+00	0.000000e+00	0.000000e+00	0.000000e+00	0.000000e+00	0.000000e+00	0.000000e+00	0.000000e+00	0.000000e+00	0.000000e+00	0.000000e+00	0.000000e+00	0.000000e+00	0.000000e+00	0.000000e+00	0.000000e+00	0.000000e+00	0.000000e+00	0.000000e+00	0.000000e+00	0.000000e+00	0.000000e+00	0.000000e+00	0.000000e+00	0.000000e+00	0.000000e+00	0.000000e+00	0.000000e+00	0.000000e+00	0.000000e+00	0.000000e+00	0.000000e+00	0.000000e+00	0.000000e+00	0.000000e+00	0.000000e+00	0.000000e+00	0.000000e+00	0.000000e+00	0.000000e+00	0.000000e+00	0.000000e+00	0.000000e+00	0.000000e+00	0.000000e+00	0.000000e+00	0.000000e+00	0.000000e+00	0.000000e+00	0.000000e+00	0.000000e+00	0.000000e+00	0.000000e+00	0.000000e+00	0.000000e+00	0.000000e+00	0.000000e+00	0.000000e+00	0.000000e+00	0.000000e+00	0.000000e+00	0.000000e+00	0.000000e+00	0.000000e+00	0.000000e+00	0.000000e+00	0.000000e+00	0.000000e+00	0.000000e+00	0.000000e+00	0.000000e+00	0.000000e+00	0.000000e+00	0.000000e+00	0.000000e+00	0.000000e+00	0.000000e+00	0.000000e+00	0.000000e+00	0.000000e+00	0.000000e+00	0.000000e+00	0.000000e+00	0.000000e+00	0.000000e+00	0.000000e+00	0.000000e+00	0.000000e+00	0.000000e+00	0.000000e+00	0.000000e+00	0.000000e+00	0.000000e+00	0.000000e+00	0.000000e+00	0.000000e+00	0.000000e+00	0.000000e+00	0.000000e+00	0.000000e+00	0.000000e+00	0.000000e+00	0.000000e+00	0.000000e+00	0.000000e+00	0.000000e+00	0.000000e+00	0.000000e+00	0.000000e+00	0.000000e+00	0.000000e+00	0.000000e+00	0.000000e+00	0.000000e+00	0.000000e+00	0.000000e+00	0.000000e+00	0.000000e+00	
SCALARS Y-Momentum float 1
LOOKUP_TABLE default
0.000000e+00	0.000000e+00	0.000000e+00	0.000000e+00	0.000000e+00	0.000000e+00	0.000000e+00	0.000000e+00	0.000000e+00	0.000000e+00	0.000000e+00	0.000000e+00	0.000000e+00	0.000000e+00	0.000000e+00	0.000000e+00	0.000000e+00	0.000000e+00	0.000000e+00	0.000000e+00	0.000000e+00	0.000000e+00	0.000000e+00	0.000000e+00	0.000000e+00	0.000000e+00	0.000000e+00	0.000000e+00	0.000000e+00	0.000000e+00	0.000000e+00	0.000000e+00	0.000000e+00	0.000000e+00	0.000000e+00	0.000000e+00	0.000000e+00	0.000000e+00	0.000000e+00	0.000000e+00	0.000000e+00	0.000000e+00	0.000000e+00	0.000000e+00	0.000000e+00	0.000000e+00	0.000000e+00	0.000000e+00	0.000000e+00	0.000000e+00	0.000000e+00	0.000000e+00	0.000000e+00	0.000000e+00	0.000000e+00	0.000000e+00	0.000000e+00	0.000000e+00	0.000000e+00	0.000000e+00	0.000000e+00	0.000000e+00	0.000000e+00	0.000000e+00	0.000000e+00	0.000000e+00	0.000000e+00	0.000000e+00	0.000000e+00	0.000000e+00	0.000000e+00	0.000000e+00	0.000000e+00	0.000000e+00	0.000000e+00	0.000000e+00	0.000000e+00	0.000000e+00	0.000000e+00	0.000000e+00	0.000000e+00	0.000000e+00	0.000000e+00	0.000000e+00	0.000000e+00	0.000000e+00	0.000000e+00	0.000000e+00	0.000000e+00	0.000000e+00	0.000000e+00	0.000000e+00	0.000000e+00	0.000000e+00	0.000000e+00	0.000000e+00	0.000000e+00	0.000000e+00	0.000000e+00	0.000000e+00	0.000000e+00	0.000000e+00	0.000000e+00	0.000000e+00	0.000000e+00	0.000000e+00	0.000000e+00	0.000000e+00	0.000000e+00	0.000000e+00	0.000000e+00	0.000000e+00	0.000000e+00	0.000000e+00	0.000000e+00	0.000000e+00	0.000000e+00	0.000000e+00	0.000000e+00	0.000000e+00	0.000000e+00	0.000000e+00	0.000000e+00	0.000000e+00	0.000000e+00	0.000000e+00	0.000000e+00	0.000000e+00	0.000000e+00	0.000000e+00	0.000000e+00	0.000000e+00	0.000000e+00	0.000000e+00	0.000000e+00	0.000000e+00	0.000000e+00	0.000000e+00	0.000000e+00	0.000000e+00	0.000000e+00	0.000000e+00	0.000000e+00	0.000000e+00	0.000000e+00	0.000000e+00	0.000000e+00	0.000000e+00	0.000000e+00	0.000000e+00	0.000000e+00	0.000000e+00	0.000000e+00	0.000000e+00	0.000000e+00	0.000000e+00	0.000000e+00	0.000000e+00	0.000000e+00	0.000000e+00	0.000000e+00	0.000000e+00	0.000000e+00	0.000000e+00	0.000000e+00	0.000000e+00	0.000000e+00	0.000000e+00	0.000000e+00	0.000000e+00	0.000000e+00	0.000000e+00	0.000000e+00	0.000000e+00	0.000000e+00	0.000000e+00	0.000000e+00	0.000000e+00	0.000000e+00	0.000000e+00	0.000000e+00	0.000000e+00	0.000000e+00	0.000000e+00	0.000000e+00	0.000000e+00	0.000000e+00	0.000000e+00	0.000000e+00	0.000000e+00	0.000000e+00	0.000000e+00	0.000000e+00	0.000000e+00	0.000000e+00	0.000000e+00	0.000000e+00	0.000000e+00	0.000000e+00	0.000000e+00	0.000000e+00	0.000000e+00	0.000000e+00	0.000000e+00	0.000000e+00	0.000000e+00	0.000000e+00	0.000000e+00	0.000000e+00	0.000000e+00	0.000000e+00	0.000000e+00	0.000000e+00	0.000000e+00	0.000000e+00	0.000000e+00	0.000000e+00	0.000000e+00	0.000000e+00	0.000000e+00	0.000000e+00	0.000000e+00	0.000000e+00	0.000000e+00	0.000000e+00	0.000000e+00	0.000000e+00	0.000000e+00	0.000000e+00	0.000000e+00	0.000000e+00	0.000000e+00	0.000000e+00	0.000000e+00	0.000000e+00	0.000000e+00	0.000000e+00	0.000000e+00	0.000000e+00	0.000000e+00	0.000000e+00	0.000000e+00	0.000000e+00	0.000000e+00	0.000000e+00	0.000000e+00	0.000000e+00	0.000000e+00	0.000000e+00	0.000000e+00	0.000000e+00	0.000000e+00	0.000000e+00	0.000000e+00	0.000000e+00	0.000000e+00	0.000000e+00	0.000000e+00	0.000000e+00	0.000000e+00	0.000000e+00	0.000000e+00	0.000000e+00	0.000000e+00	0.000000e+00	0.000000e+00	
SCALARS Energy float 1
LOOKUP_TABLE default
1.944925e+06	2.031220e+06	2.139273e+06	2.200252e+06	2.198507e+06	2.216117e+06	2.290931e+06	2.391354e+06	2.424991e+06	2.423564e+06	2.471075e+06	2.578736e+06	2.615975e+06	2.637431e+06	2.706733e+06	2.762832e+06	2.779494e+06	2.836041e+06	2.899847e+06	3.507358e+06	3.514514e+06	2.915145e+06	2.956788e+06	3.034302e+06	3.064486e+06	3.494539e+06	3.066154e+06	3.093872e+06	3.467437e+06	3.427260e+06	3.393979e+06	3.369170e+06	3.332811e+06	3.310202e+06	3.145663e+06	3.206513e+06	3.289253e+06	3.270144e+06	3.251588e+06	3.233190e+06	1.956534e+06	1.969133e+06	1.973438e+06	1.920647e+06	1.840691e+06	1.748036e+06	1.686131e+06	1.658960e+06	1.662047e+06	1.670434e+06	1.651984e+06	1.597441e+06	1.533897e+06	1.483104e+06	1.462505e+06	1.483893e+06	1.495438e+06	1.499764e+06	1.465003e+06	1.421359e+06	1.373938e+06	1.340183e+06	1.328784e+06	1.349477e+06	1.375359e+06	1.397728e+06	1.408863e+06	1.420298e+06	1.447104e+06	1.495506e+06	1.554342e+06	1.610100e+06	1.657973e+06	1.698297e+06	1.734925e+06	1.763647e+06	1.789200e+06	1.816503e+06	1.838418e+06	1.858544e+06	1.877280e+06	1.895355e+06	1.912508e+06	1.929004e+06	1.944716e+06	1.959617e+06	1.973703e+06	1.987183e+06	2.000288e+06	2.013075e+06	2.025395e+06	2.037087e+06	2.048238e+06	2.059056e+06	2.069739e+06	2.079979e+06	2.089492e+06	2.098459e+06	2.107166e+06	2.115629e+06	2.123712e+06	2.131474e+06	2.138864e+06	2.145802e+06	2.152381e+06	2.158703e+06	2.164801e+06	2.170658e+06	2.176241e+06	2.181540e+06	2.186577e+06	2.191385e+06	2.196006e+06	2.200484e+06	2.204877e+06	2.209173e+06	2.213279e+06	2.217085e+06	2.220663e+06	2.224317e+06	2.228324e+06	2.232555e+06	2.236491e+06	2.239823e+06	2.242879e+06	2.246401e+06	2.251599e+06	2.258919e+06	2.266138e+06	2.271964e+06	2.277076e+06	2.283842e+06	2.293019e+06	2.303440e+06	2.313261e+06	2.323335e+06	2.315890e+06	2.326635e+06	2.325445e+06	2.386944e+06	2.393125e+06	2.397727e+06	2.359884e+06	2.343549e+06	2.331376e+06	2.268103e+06	2.162996e+06	2.018807e+06	2.170356e+06	2.300690e+06	2.396897e+06	2.488386e+06	2.556461e+06	2.612326e+06	2.669339e+06	2.724994e+06	2.771828e+06	2.815114e+06	2.857388e+06	2.897369e+06	2.931661e+06	2.960550e+06	2.989797e+06	3.022647e+06	3.056967e+06	3.078411e+06	3.095892e+06	3.121310e+06	3.142931e+06	3.156243e+06	3.174482e+06	3.197448e+06	3.221204e+06	3.238104e+06	3.248350e+06	3.256769e+06	3.268263e+06	3.283515e+06	3.301745e+06	3.319014e+06	3.331413e+06	3.342594e+06	3.355084e+06	3.369013e+06	3.383826e+06	3.398967e+06	3.412944e+06	3.424896e+06	3.436164e+06	3.448500e+06	3.461628e+06	3.474772e+06	3.487372e+06	3.498092e+06	3.505940e+06	3.511770e+06	3.517801e+06	3.525258e+06	3.533920e+06	3.542603e+06	3.551087e+06	3.558638e+06	3.564642e+06	3.568860e+06	3.571217e+06	3.573256e+06	3.576423e+06	3.581024e+06	3.585671e+06	3.588263e+06	3.591113e+06	3.594860e+06	3.598843e+06	3.603103e+06	3.606748e+06	3.609363e+06	3.611368e+06	3.613194e+06	3.615111e+06	3.617510e+06	3.620215e+06	3.623190e+06	3.625936e+06	3.628042e+06	3.630588e+06	3.633624e+06	3.635950e+06	3.638127e+06	3.640792e+06	3.643572e+06	3.646521e+06	3.649731e+06	3.653086e+06	3.655475e+06	3.656673e+06	3.658843e+06	3.661490e+06	3.664361e+06	3.667416e+06	3.669348e+06	3.668930e+06	3.668962e+06	3.670065e+06	3.670182e+06	3.670951e+06	3.669120e+06	3.666775e+06	3.668823e+06	3.671451e+06	3.672146e+06	3.677825e+06	3.681459e+06	3.690697e+06	3.700444e+06	3.716260e+06	3.733199e+06	3.765227e+06	3.766287e+06	3.770236e+06	3.743520e+06	3.727254e+06	3.701209e+06	3.670942e+06	3.621473e+06	3.579927e+06	3.538921e+06	
SCALARS TKE float 1
LOOKUP_TABLE default
1.000000e-10	1.000000e-10	1.000000e-10	1.000000e-10	1.000000e-10	1.000000e-10	1.000000e-10	1.000000e-10	1.000000e-10	1.000000e-10	1.000000e-10	1.000000e-10	1.000000e-10	1.000000e-10	1.000000e-10	1.000000e-10	1.000000e-10	1.000000e-10	1.000000e-10	1.000000e-10	1.000000e-10	1.000000e-10	1.000000e-10	1.000000e-10	1.000000e-10	1.000000e-10	1.000000e-10	1.000000e-10	1.000000e-10	1.000000e-10	1.000000e-10	1.000000e-10	1.000000e-10	1.000000e-10	1.000000e-10	1.000000e-10	1.000000e-10	1.000000e-10	1.000000e-10	1.000000e-10	1.000000e-10	1.000000e-10	1.000000e-10	1.000000e-10	1.000000e-10	1.000000e-10	1.000000e-10	1.000000e-10	1.000000e-10	1.000000e-10	1.000000e-10	1.000000e-10	1.000000e-10	1.000000e-10	1.000000e-10	1.000000e-10	1.000000e-10	1.000000e-10	1.000000e-10	1.000000e-10	1.000000e-10	1.000000e-10	1.000000e-10	1.000000e-10	1.000000e-10	1.000000e-10	1.000000e-10	1.000000e-10	1.000000e-10	1.000000e-10	1.000000e-10	1.000000e-10	1.000000e-10	1.000000e-10	1.000000e-10	1.000000e-10	1.000000e-10	1.000000e-10	1.000000e-10	1.000000e-10	1.000000e-10	1.000000e-10	1.000000e-10	1.000000e-10	1.000000e-10	1.000000e-10	1.000000e-10	1.000000e-10	1.000000e-10	1.000000e-10	1.000000e-10	1.000000e-10	1.000000e-10	1.000000e-10	1.000000e-10	1.000000e-10	1.000000e-10	1.000000e-10	1.000000e-10	1.000000e-10	1.000000e-10	1.000000e-10	1.000000e-10	1.000000e-10	1.000000e-10	1.000000e-10	1.000000e-10	1.000000e-10	1.000000e-10	1.000000e-10	1.000000e-10	1.000000e-10	1.000000e-10	1.000000e-10	1.000000e-10	1.000000e-10	1.000000e-10	1.000000e-10	1.000000e-10	1.000000e-10	1.000000e-10	1.000000e-10	1.000000e-10	1.000000e-10	1.000000e-10	1.000000e-10	1.000000e-10	1.000000e-10	1.000000e-10	1.000000e-10	1.000000e-10	1.000000e-10	1.000000e-10	1.000000e-10	1.000000e-10	1.000000e-10	1.000000e-10	1.000000e-10	1.000000e-10	1.000000e-10	1.000000e-10	1.000000e-10	1.000000e-10	1.000000e-10	1.000000e-10	1.000000e-10	1.000000e-10	1.000000e-10	1.000000e-10	1.000000e-10	1.000000e-10	1.000000e-10	1.000000e-10	1.000000e-10	1.000000e-10	1.000000e-10	1.000000e-10	1.000000e-10	1.000000e-10	1.000000e-10	1.000000e-10	1.000000e-10	1.000000e-10	1.000000e-10	1.000000e-10	1.000000e-10	1.000000e-10	1.000000e-10	1.000000e-10	1.000000e-10	1.000000e-10	1.000000e-10	1.000000e-10	1.000000e-10	1.000000e-10	1.000000e-10	1.000000e-10	1.000000e-10	1.000000e-10	1.000000e-10	1.000000e-10	1.000000e-10	1.000000e-10	1.000000e-10	1.000000e-10	1.000000e-10	1.000000e-10	1.000000e-10	1.000000e-10	1.000000e-10	1.000000e-10	1.000000e-10	1.000000e-10	1.000000e-10	1.000000e-10	1.000000e-10	1.000000e-10	1.000000e-10	1.000000e-10	1.000000e-10	1.000000e-10	1.000000e-10	1.000000e-10	1.000000e-10	1.000000e-10	1.000000e-10	1.000000e-10	1.000000e-10	1.000000e-10	1.000000e-10	1.000000e-10	1.000000e-10	1.000000e-10	1.000000e-10	1.000000e-10	1.000000e-10	1.000000e-10	1.000000e-10	1.000000e-10	1.000000e-10	1.000000e-10	1.000000e-10	1.000000e-10	1.000000e-10	1.000000e-10	1.000000e-10	1.000000e-10	1.000000e-10	1.000000e-10	1.000000e-10	1.000000e-10	1.000000e-10	1.000000e-10	1.000000e-10	1.000000e-10	1.000000e-10	1.000000e-10	1.000000e-10	1.000000e-10	1.000000e-10	1.000000e-10	1.000000e-10	1.000000e-10	1.000000e-10	1.000000e-10	1.000000e-10	1.000000e-10	1.000000e-10	1.000000e-10	1.000000e-10	1.000000e-10	1.000000e-10	1.000000e-10	1.000000e-10	1.000000e-10	1.000000e-10	1.000000e-10	1.000000e-10	1.000000e-10	1.000000e-10	1.000000e-10	1.000000e-10	1.000000e-10	1.000000e-10	1.000000e-10	1.000000e-10	
SCALARS Omega float 1
LOOKUP_TABLE default