# vtk DataFile Version 3.0
vtk output
ASCII
DATASET UNSTRUCTURED_GRID
POINTS 324 float
3.085804e-01	-3.230213e-03	0.0	3.089526e-01	-2.604522e-03	0.0	3.492715e-01	5.209667e-03	0.0	3.476966e-01	4.400654e-03	0.0	3.469004e-01	4.013196e-03	0.0	3.461063e-01	3.621450e-03	0.0	3.453074e-01	3.239690e-03	0.0	3.444980e-01	2.880663e-03	0.0	3.436813e-01	2.538755e-03	0.0	3.428659e-01	2.193951e-03	0.0	3.420457e-01	1.861087e-03	0.0	3.412151e-01	1.555801e-03	0.0	3.403773e-01	1.271143e-03	0.0	3.395409e-01	9.828459e-04	0.0	3.387002e-01	7.085158e-04	0.0	3.378498e-01	4.667364e-04	0.0	3.369925e-01	2.518513e-04	0.0	3.361364e-01	3.350940e-05	0.0	3.352778e-01	-1.730286e-04	0.0	3.344121e-01	-3.452022e-04	0.0	3.335416e-01	-4.895788e-04	0.0	3.326712e-01	-6.311072e-04	0.0	3.318010e-01	-7.718520e-04	0.0	3.309276e-01	-8.860647e-04	0.0	3.300515e-01	-9.725823e-04	0.0	3.291748e-01	-1.047109e-03	0.0	3.282993e-01	-1.128879e-03	0.0	3.274245e-01	-1.210247e-03	0.0	3.265490e-01	-1.276510e-03	0.0	3.256726e-01	-1.316176e-03	0.0	3.247961e-01	-1.331615e-03	0.0	3.239203e-01	-1.328909e-03	0.0	3.230453e-01	-1.314082e-03	0.0	3.221712e-01	-1.293108e-03	0.0	3.212979e-01	-1.271940e-03	0.0	3.204255e-01	-1.250547e-03	0.0	3.195542e-01	-1.220909e-03	0.0	3.186839e-01	-1.187218e-03	0.0	3.178151e-01	-1.141949e-03	0.0	3.169474e-01	-1.093644e-03	0.0	3.160808e-01	-1.043356e-03	0.0	3.152157e-01	-9.854075e-04	0.0	3.143517e-01	-9.256926e-04	0.0	3.134890e-01	-8.638602e-04	0.0	3.126276e-01	-7.984141e-04	0.0	3.117682e-01	-7.994838e-04	0.0	3.109480e-01	-1.059579e-03	0.0	3.101596e-01	-1.396191e-03	0.0	3.095147e-01	-1.961682e-03	0.0	3.083361e-01	-3.913094e-03	0.0	3.484891e-01	4.795396e-03	0.0	3.500443e-01	5.641354e-03	0.0	3.505637e-01	5.940783e-03	0.0	3.510818e-01	6.242514e-03	0.0	3.516005e-01	6.543308e-03	0.0	3.521204e-01	6.842176e-03	0.0	3.526394e-01	7.142492e-03	0.0	3.531554e-01	7.448047e-03	0.0	3.536673e-01	7.760462e-03	0.0	3.541757e-01	8.078652e-03	0.0	3.546812e-01	8.401356e-03	0.0	3.551850e-01	8.726799e-03	0.0	3.556884e-01	9.052778e-03	0.0	3.561926e-01	9.377406e-03	0.0	3.566970e-01	9.701935e-03	0.0	3.571994e-01	1.002937e-02	0.0	3.576988e-01	1.036143e-02	0.0	3.581956e-01	1.069725e-02	0.0	3.586906e-01	1.103562e-02	0.0	3.591848e-01	1.137519e-02	0.0	3.596791e-01	1.171455e-02	0.0	3.601738e-01	1.205311e-02	0.0	3.606683e-01	1.239196e-02	0.0	3.611617e-01	1.273236e-02	0.0	3.616532e-01	1.307533e-02	0.0	3.621427e-01	1.342115e-02	0.0	3.626299e-01	1.376992e-02	0.0	3.631150e-01	1.412154e-02	0.0	3.635988e-01	1.447491e-02	0.0	3.640822e-01	1.482856e-02	0.0	3.645663e-01	1.518121e-02	0.0	3.650508e-01	1.553303e-02	0.0	3.655351e-01	1.588498e-02	0.0	3.660186e-01	1.623800e-02	0.0	3.665004e-01	1.659304e-02	0.0	3.669800e-01	1.695083e-02	0.0	3.674573e-01	1.731157e-02	0.0	3.679320e-01	1.767539e-02	0.0	3.684042e-01	1.804240e-02	0.0	3.688736e-01	1.841269e-02	0.0	3.693407e-01	1.878566e-02	0.0	3.698063e-01	1.916020e-02	0.0	3.702714e-01	1.953521e-02	0.0	3.707369e-01	1.990957e-02	0.0	3.712032e-01	2.028254e-02	0.0	3.716699e-01	2.065485e-02	0.0	3.721360e-01	2.102757e-02	0.0	3.726007e-01	2.140178e-02	0.0	3.730631e-01	2.177851e-02	0.0	3.735228e-01	2.215833e-02	0.0	3.739796e-01	2.254132e-02	0.0	3.744334e-01	2.292759e-02	0.0	3.748840e-01	2.331720e-02	0.0	3.753316e-01	2.371001e-02	0.0	3.757771e-01	2.410498e-02	0.0	3.762213e-01	2.450094e-02	0.0	3.766655e-01	2.489671e-02	0.0	3.771105e-01	2.529122e-02	0.0	3.775554e-01	2.568542e-02	0.0	3.779981e-01	2.608187e-02	0.0	3.784375e-01	2.648149e-02	0.0	3.788740e-01	2.688399e-02	0.0	3.793093e-01	2.728748e-02	0.0	3.797452e-01	2.768994e-02	0.0	3.801809e-01	2.809223e-02	0.0	3.806148e-01	2.849608e-02	0.0	3.810456e-01	2.890280e-02	0.0	3.814733e-01	2.931248e-02	0.0	3.818978e-01	2.972501e-02	0.0	3.823199e-01	3.013972e-02	0.0	3.827409e-01	3.055504e-02	0.0	3.831625e-01	3.096943e-02	0.0	3.835847e-01	3.138273e-02	0.0	3.840066e-01	3.179598e-02	0.0	3.844271e-01	3.221022e-02	0.0	3.848451e-01	3.262651e-02	0.0	3.852599e-01	3.304552e-02	0.0	3.856716e-01	3.346721e-02	0.0	3.860802e-01	3.389150e-02	0.0	3.864856e-01	3.431827e-02	0.0	3.868883e-01	3.474732e-02	0.0	3.872888e-01	3.517786e-02	0.0	3.876882e-01	3.560898e-02	0.0	3.880875e-01	3.603977e-02	0.0	3.884875e-01	3.646937e-02	0.0	3.888881e-01	3.689801e-02	0.0	3.892881e-01	3.732663e-02	0.0	3.896867e-01	3.775620e-02	0.0	3.900826e-01	3.818768e-02	0.0	3.904754e-01	3.862152e-02	0.0	3.908652e-01	3.905758e-02	0.0	3.912521e-01	3.949567e-02	0.0	3.916363e-01	3.993562e-02	0.0	3.920181e-01	4.037717e-02	0.0	3.923980e-01	4.081987e-02	0.0	3.927765e-01	4.126324e-02	0.0	3.931543e-01	4.170701e-02	0.0	3.935849e-01	4.208953e-02	0.0	3.941278e-01	4.229537e-02	0.0	3.947040e-01	4.232142e-02	0.0	3.952414e-01	4.210361e-02	0.0	3.957366e-01	4.165683e-02	0.0	3.960041e-01	4.105694e-02	0.0	3.960432e-01	4.038936e-02	0.0	3.957582e-01	3.978330e-02	0.0	3.954517e-01	3.918439e-02	0.0	3.951172e-01	3.860033e-02	0.0	3.947718e-01	3.802233e-02	0.0	3.944288e-01	3.744266e-02	0.0	3.940753e-01	3.686905e-02	0.0	3.937058e-01	3.630534e-02	0.0	3.933294e-01	3.574593e-02	0.0	3.929527e-01	3.518647e-02	0.0	3.925764e-01	3.462648e-02	0.0	3.921933e-01	3.407094e-02	0.0	3.918060e-01	3.351797e-02	0.0	3.914216e-01	3.296284e-02	0.0	3.910376e-01	3.240710e-02	0.0	3.906531e-01	3.185160e-02	0.0	3.902689e-01	3.129564e-02	0.0	3.898861e-01	3.073847e-02	0.0	3.895048e-01	3.018008e-02	0.0	3.891242e-01	2.962103e-02	0.0	3.887436e-01	2.906182e-02	0.0	3.883628e-01	2.850254e-02	0.0	3.879818e-01	2.794325e-02	0.0	3.876008e-01	2.738379e-02	0.0	3.872202e-01	2.682392e-02	0.0	3.868400e-01	2.626362e-02	0.0	3.864595e-01	2.570334e-02	0.0	3.860783e-01	2.514349e-02	0.0	3.856963e-01	2.458394e-02	0.0	3.853143e-01	2.402435e-02	0.0	3.849324e-01	2.346457e-02	0.0	3.845505e-01	2.290465e-02	0.0	3.841687e-01	2.234461e-02	0.0	3.837868e-01	2.178450e-02	0.0	3.834044e-01	2.122460e-02	0.0	3.830209e-01	2.066543e-02	0.0	3.826354e-01	2.010755e-02	0.0	3.822472e-01	1.955150e-02	0.0	3.818563e-01	1.899729e-02	0.0	3.814637e-01	1.844420e-02	0.0	3.810706e-01	1.789143e-02	0.0	3.806781e-01	1.733822e-02	0.0	3.802864e-01	1.678436e-02	0.0	3.798946e-01	1.623061e-02	0.0	3.795014e-01	1.567777e-02	0.0	3.791060e-01	1.512656e-02	0.0	3.787075e-01	1.457756e-02	0.0	3.783051e-01	1.403133e-02	0.0	3.778993e-01	1.348775e-02	0.0	3.774917e-01	1.294545e-02	0.0	3.770845e-01	1.240292e-02	0.0	3.766786e-01	1.185945e-02	0.0	3.762731e-01	1.131572e-02	0.0	3.758669e-01	1.077254e-02	0.0	3.754589e-01	1.023076e-02	0.0	3.750481e-01	9.691202e-03	0.0	3.746336e-01	9.154567e-03	0.0	3.742145e-01	8.621531e-03	0.0	3.737901e-01	8.092786e-03	0.0	3.733598e-01	7.569026e-03	0.0	3.729239e-01	7.049953e-03	0.0	3.724845e-01	6.533896e-03	0.0	3.720439e-01	6.019046e-03	0.0	3.716041e-01	5.503582e-03	0.0	3.711665e-01	4.986414e-03	0.0	3.707284e-01	4.469844e-03	0.0	3.702861e-01	3.956989e-03	0.0	3.698379e-01	3.449392e-03	0.0	3.693834e-01	2.947656e-03	0.0	3.689248e-01	2.449865e-03	0.0	3.684664e-01	1.951943e-03	0.0	3.680095e-01	1.452949e-03	0.0	3.675499e-01	9.565835e-04	0.0	3.670845e-01	4.659658e-04	0.0	3.666122e-01	-1.784669e-05	0.0	3.661336e-01	-4.952477e-04	0.0	3.656532e-01	-9.705890e-04	0.0	3.651745e-01	-1.447378e-03	0.0	3.646928e-01	-1.920808e-03	0.0	3.642040e-01	-2.386786e-03	0.0	3.637098e-01	-2.846603e-03	0.0	3.632161e-01	-3.306775e-03	0.0	3.627206e-01	-3.764582e-03	0.0	3.622181e-01	-4.214493e-03	0.0	3.617094e-01	-4.657001e-03	0.0	3.612008e-01	-5.099338e-03	0.0	3.606927e-01	-5.541840e-03	0.0	3.601798e-01	-5.978494e-03	0.0	3.596596e-01	-6.406048e-03	0.0	3.591319e-01	-6.823864e-03	0.0	3.585997e-01	-7.235503e-03	0.0	3.580685e-01	-7.647979e-03	0.0	3.575381e-01	-8.061233e-03	0.0	3.570034e-01	-8.468280e-03	0.0	3.564613e-01	-8.865139e-03	0.0	3.558462e-01	-9.296533e-03	0.0	3.552260e-01	-9.720815e-03	0.0	3.546077e-01	-1.014782e-02	0.0	3.539899e-01	-1.057572e-02	0.0	3.533677e-01	-1.099729e-02	0.0	3.527373e-01	-1.140643e-02	0.0	3.520973e-01	-1.180049e-02	0.0	3.514471e-01	-1.217751e-02	0.0	3.507891e-01	-1.254059e-02	0.0	3.501287e-01	-1.289942e-02	0.0	3.494709e-01	-1.326294e-02	0.0	3.488141e-01	-1.362821e-02	0.0	3.481530e-01	-1.398570e-02	0.0	3.474837e-01	-1.432725e-02	0.0	3.468049e-01	-1.464935e-02	0.0	3.461162e-01	-1.494947e-02	0.0	3.454202e-01	-1.523238e-02	0.0	3.447227e-01	-1.551103e-02	0.0	3.440278e-01	-1.579619e-02	0.0	3.433332e-01	-1.608136e-02	0.0	3.426333e-01	-1.635326e-02	0.0	3.419253e-01	-1.660284e-02	0.0	3.412089e-01	-1.682658e-02	0.0	3.404850e-01	-1.702427e-02	0.0	3.397580e-01	-1.720959e-02	0.0	3.390323e-01	-1.739950e-02	0.0	3.383080e-01	-1.759389e-02	0.0	3.375808e-01	-1.777635e-02	0.0	3.368479e-01	-1.793316e-02	0.0	3.361094e-01	-1.805972e-02	0.0	3.353663e-01	-1.815450e-02	0.0	3.346213e-01	-1.823091e-02	0.0	3.338768e-01	-1.830991e-02	0.0	3.331331e-01	-1.839468e-02	0.0	3.323881e-01	-1.846271e-02	0.0	3.316411e-01	-1.849889e-02	0.0	3.308935e-01	-1.850123e-02	0.0	3.301464e-01	-1.848006e-02	0.0	3.293995e-01	-1.846009e-02	0.0	3.286529e-01	-1.844482e-02	0.0	3.279072e-01	-1.841066e-02	0.0	3.271642e-01	-1.834286e-02	0.0	3.264256e-01	-1.823925e-02	0.0	3.256910e-01	-1.811200e-02	0.0	3.249563e-01	-1.798743e-02	0.0	3.242212e-01	-1.786757e-02	0.0	3.234899e-01	-1.772845e-02	0.0	3.227665e-01	-1.755449e-02	0.0	3.220536e-01	-1.734303e-02	0.0	3.213504e-01	-1.710210e-02	0.0	3.206490e-01	-1.685733e-02	0.0	3.199448e-01	-1.662183e-02	0.0	3.192454e-01	-1.637375e-02	0.0	3.185593e-01	-1.609226e-02	0.0	3.178902e-01	-1.577352e-02	0.0	3.172381e-01	-1.542217e-02	0.0	3.165914e-01	-1.506178e-02	0.0	3.159437e-01	-1.470419e-02	0.0	3.153142e-01	-1.431650e-02	0.0	3.146902e-01	-1.392078e-02	0.0	3.140682e-01	-1.352281e-02	0.0	3.134652e-01	-1.309771e-02	0.0	3.128945e-01	-1.263095e-02	0.0	3.123623e-01	-1.212149e-02	0.0	3.118408e-01	-1.160155e-02	0.0	3.113118e-01	-1.109011e-02	0.0	3.108081e-01	-1.055470e-02	0.0	3.103577e-01	-9.974589e-03	0.0	3.099574e-01	-9.359202e-03	0.0	3.095563e-01	-8.745006e-03	0.0	3.091991e-01	-8.105295e-03	0.0	3.088775e-01	-7.447271e-03	0.0	3.085931e-01	-6.773398e-03	0.0	3.083583e-01	-6.080923e-03	0.0	3.082394e-01	-5.362770e-03	0.0	3.082284e-01	-4.634417e-03	0.0	
CELLS 324	972
2	51	52	2	52	53	2	53	54	2	54	55	2	55	56	2	56	57	2	57	58	2	58	59	2	59	60	2	60	61	2	61	62	2	62	63	2	63	64	2	64	65	2	65	66	2	66	67	2	67	68	2	68	69	2	69	70	2	70	71	2	71	72	2	72	73	2	73	74	2	74	75	2	75	76	2	76	77	2	77	78	2	78	79	2	79	80	2	80	81	2	81	82	2	82	83	2	83	84	2	84	85	2	85	86	2	86	87	2	87	88	2	88	89	2	89	90	2	90	91	2	91	92	2	92	93	2	93	94	2	94	95	2	95	96	2	96	97	2	97	98	2	98	99	2	99	100	2	100	101	2	101	102	2	102	103	2	103	104	2	104	105	2	105	106	2	106	107	2	107	108	2	108	109	2	109	110	2	110	111	2	111	112	2	112	113	2	113	114	2	114	115	2	115	116	2	116	117	2	117	118	2	118	119	2	119	120	2	120	121	2	121	122	2	122	123	2	123	124	2	124	125	2	125	126	2	126	127	2	127	128	2	128	129	2	129	130	2	130	131	2	131	132	2	132	133	2	133	134	2	134	135	2	135	136	2	136	137	2	137	138	2	138	139	2	139	140	2	140	141	2	141	142	2	142	143	2	143	144	2	144	145	2	145	146	2	146	147	2	147	148	2	148	149	2	149	150	2	150	151	2	151	152	2	152	153	2	153	154	2	154	155	2	155	156	2	156	157	2	157	158	2	158	159	2	159	160	2	160	161	2	161	162	2	162	163	2	163	164	2	164	165	2	165	166	2	166	167	2	167	168	2	168	169	2	169	170	2	170	171	2	171	172	2	172	173	2	173	174	2	174	175	2	175	176	2	176	177	2	177	178	2	178	179	2	179	180	2	180	181	2	181	182	2	182	183	2	183	184	2	184	185	2	185	186	2	186	187	2	187	188	2	188	189	2	189	190	2	190	191	2	191	192	2	192	193	2	193	194	2	194	195	2	195	196	2	196	197	2	197	198	2	198	199	2	199	200	2	200	201	2	201	202	2	202	203	2	203	204	2	204	205	2	205	206	2	206	207	2	207	208	2	208	209	2	209	210	2	210	211	2	211	212	2	212	213	2	213	214	2	214	215	2	215	216	2	216	217	2	217	218	2	218	219	2	219	220	2	220	221	2	221	222	2	222	223	2	223	224	2	224	225	2	225	226	2	226	227	2	227	228	2	228	229	2	229	230	2	230	231	2	231	232	2	232	233	2	233	234	2	234	235	2	235	236	2	236	237	2	237	238	2	238	239	2	239	240	2	240	241	2	241	242	2	242	243	2	243	244	2	244	245	2	245	246	2	246	247	2	247	248	2	248	249	2	249	250	2	250	251	2	251	252	2	252	253	2	253	254	2	254	255	2	255	256	2	256	257	2	257	258	2	258	259	2	259	260	2	260	261	2	261	262	2	262	263	2	263	264	2	264	265	2	265	266	2	266	267	2	267	268	2	268	269	2	269	270	2	270	271	2	271	272	2	272	273	2	273	274	2	274	275	2	275	276	2	276	277	2	277	278	2	278	279	2	279	280	2	280	281	2	281	282	2	282	283	2	283	284	2	284	285	2	285	286	2	286	287	2	287	288	2	288	289	2	289	290	2	290	291	2	291	292	2	292	293	2	293	294	2	294	295	2	295	296	2	296	297	2	297	298	2	298	299	2	299	300	2	300	301	2	301	302	2	302	303	2	303	304	2	304	305	2	305	306	2	306	307	2	307	308	2	308	309	2	309	310	2	310	311	2	311	312	2	312	313	2	313	314	2	314	315	2	315	316	2	316	317	2	317	318	2	318	319	2	319	320	2	320	321	2	321	322	2	322	323	2	323	49	2	49	0	2	0	1	2	1	48	2	48	47	2	47	46	2	46	45	2	45	44	2	44	43	2	43	42	2	42	41	2	41	40	2	40	39	2	39	38	2	38	37	2	37	36	2	36	35	2	35	34	2	34	33	2	33	32	2	32	31	2	31	30	2	30	29	2	29	28	2	28	27	2	27	26	2	26	25	2	25	24	2	24	23	2	23	22	2	22	21	2	21	20	2	20	19	2	19	18	2	18	17	2	17	16	2	16	15	2	15	14	2	14	13	2	13	12	2	12	11	2	11	10	2	10	9	2	9	8	2	8	7	2	7	6	2	6	5	2	5	4	2	4	3	2	3	50	2	50	2	2	2	51	
CELL_TYPES 324
3	3	3	3	3	3	3	3	3	3	3	3	3	3	3	3	3	3	3	3	3	3	3	3	3	3	3	3	3	3	3	3	3	3	3	3	3	3	3	3	3	3	3	3	3	3	3	3	3	3	3	3	3	3	3	3	3	3	3	3	3	3	3	3	3	3	3	3	3	3	3	3	3	3	3	3	3	3	3	3	3	3	3	3	3	3	3	3	3	3	3	3	3	3	3	3	3	3	3	3	3	3	3	3	3	3	3	3	3	3	3	3	3	3	3	3	3	3	3	3	3	3	3	3	3	3	3	3	3	3	3	3	3	3	3	3	3	3	3	3	3	3	3	3	3	3	3	3	3	3	3	3	3	3	3	3	3	3	3	3	3	3	3	3	3	3	3	3	3	3	3	3	3	3	3	3	3	3	3	3	3	3	3	3	3	3	3	3	3	3	3	3	3	3	3	3	3	3	3	3	3	3	3	3	3	3	3	3	3	3	3	3	3	3	3	3	3	3	3	3	3	3	3	3	3	3	3	3	3	3	3	3	3	3	3	3	3	3	3	3	3	3	3	3	3	3	3	3	3	3	3	3	3	3	3	3	3	3	3	3	3	3	3	3	3	3	3	3	3	3	3	3	3	3	3	3	3	3	3	3	3	3	3	3	3	3	3	3	3	3	3	3	3	3	3	3	3	3	3	3	3	3	3	3	3	3	3	3	3	3	3	3	3	3	3	3	3	3	3	3	3	3	3	3	
POINT_DATA 324

SCALARS Density float 1
LOOKUP_TABLE default
2.509028e+00	2.807972e+00	1.952840e+00	2.029498e+00	2.006944e+00	2.063715e+00	2.112393e+00	2.172340e+00	2.189706e+00	2.225320e+00	2.257718e+00	2.271184e+00	2.285930e+00	2.316334e+00	2.342249e+00	2.349542e+00	2.356554e+00	2.381899e+00	2.400722e+00	2.407130e+00	2.404713e+00	2.425934e+00	2.441746e+00	2.454788e+00	2.454890e+00	2.466613e+00	2.487541e+00	2.514921e+00	2.539951e+00	2.555123e+00	2.572140e+00	2.577376e+00	2.585130e+00	2.601567e+00	2.626297e+00	2.652090e+00	2.681088e+00	2.709550e+00	2.739084e+00	2.771902e+00	2.806259e+00	2.843113e+00	2.883247e+00	2.937168e+00	2.981305e+00	3.060637e+00	3.116516e+00	3.141219e+00	2.999453e+00	2.143023e+00	1.985141e+00	1.902617e+00	1.865239e+00	1.815740e+00	1.784497e+00	1.770044e+00	1.764838e+00	1.754084e+00	1.733082e+00	1.704492e+00	1.669900e+00	1.626954e+00	1.585895e+00	1.559920e+00	1.545891e+00	1.533594e+00	1.513630e+00	1.487204e+00	1.454085e+00	1.416823e+00	1.381668e+00	1.354472e+00	1.334430e+00	1.319271e+00	1.305306e+00	1.290832e+00	1.273263e+00	1.251662e+00	1.222570e+00	1.191342e+00	1.161545e+00	1.137577e+00	1.118871e+00	1.104785e+00	1.094281e+00	1.085156e+00	1.076800e+00	1.068719e+00	1.060340e+00	1.048733e+00	1.033460e+00	1.012734e+00	9.889458e-01	9.639653e-01	9.420573e-01	9.250229e-01	9.127439e-01	9.050433e-01	9.000489e-01	8.959930e-01	8.925099e-01	8.889886e-01	8.843679e-01	8.757326e-01	8.631641e-01	8.458030e-01	8.270903e-01	8.121440e-01	8.045027e-01	8.014681e-01	7.971937e-01	7.868502e-01	7.710088e-01	7.578205e-01	7.498949e-01	7.473624e-01	7.461781e-01	7.439176e-01	7.389726e-01	7.291094e-01	7.148417e-01	7.001662e-01	6.888561e-01	6.811134e-01	6.778750e-01	6.772053e-01	6.781744e-01	6.785594e-01	6.873777e-01	7.200926e-01	8.022643e-01	8.921651e-01	9.594438e-01	9.979148e-01	1.033390e+00	1.052301e+00	1.067265e+00	1.081411e+00	1.091818e+00	1.102186e+00	1.110795e+00	1.118032e+00	1.124106e+00	1.129773e+00	1.133700e+00	1.135490e+00	1.133747e+00	1.143597e+00	1.143076e+00	1.095075e+00	1.082574e+00	1.174873e+00	1.122171e+00	1.023703e+00	1.053457e+00	1.074625e+00	1.090313e+00	1.098877e+00	1.099191e+00	1.105090e+00	1.114838e+00	1.122181e+00	1.125574e+00	1.128204e+00	1.133975e+00	1.138424e+00	1.139975e+00	1.142074e+00	1.143899e+00	1.144959e+00	1.145427e+00	1.145278e+00	1.145165e+00	1.144929e+00	1.144660e+00	1.144369e+00	1.143852e+00	1.143034e+00	1.141965e+00	1.140850e+00	1.139958e+00	1.139026e+00	1.137771e+00	1.136317e+00	1.134678e+00	1.132766e+00	1.130639e+00	1.128483e+00	1.126331e+00	1.124364e+00	1.122590e+00	1.121087e+00	1.119484e+00	1.117510e+00	1.115028e+00	1.112119e+00	1.109323e+00	1.106568e+00	1.104047e+00	1.101956e+00	1.100300e+00	1.098957e+00	1.097314e+00	1.094638e+00	1.091563e+00	1.088239e+00	1.084931e+00	1.081631e+00	1.078477e+00	1.075531e+00	1.072855e+00	1.070389e+00	1.068134e+00	1.065621e+00	1.063564e+00	1.061591e+00	1.057719e+00	1.052828e+00	1.047909e+00	1.043329e+00	1.039007e+00	1.035160e+00	1.030475e+00	1.024250e+00	1.017720e+00	1.011290e+00	1.005650e+00	1.000768e+00	9.962240e-01	9.906670e-01	9.842879e-01	9.792250e-01	9.770173e-01	9.754463e-01	9.701025e-01	9.654747e-01	9.616901e-01	9.578682e-01	9.532861e-01	9.487450e-01	9.449331e-01	9.419064e-01	9.401426e-01	9.376543e-01	9.336106e-01	9.291672e-01	9.249051e-01	9.206847e-01	9.157851e-01	9.167279e-01	8.982368e-01	8.863750e-01	8.792819e-01	8.681040e-01	8.535737e-01	8.324156e-01	8.164386e-01	8.012344e-01	7.851322e-01	7.664050e-01	7.457075e-01	7.223993e-01	6.983090e-01	6.743046e-01	6.552754e-01	6.393811e-01	6.227649e-01	5.977545e-01	5.706889e-01	5.442093e-01	5.246755e-01	5.130692e-01	5.074705e-01	5.024954e-01	4.885776e-01	4.713532e-01	4.574661e-01	4.516354e-01	4.542886e-01	4.646204e-01	4.739020e-01	4.741871e-01	4.731078e-01	4.752639e-01	4.886365e-01	5.049881e-01	5.184246e-01	5.261780e-01	5.324752e-01	5.399358e-01	5.488542e-01	5.561572e-01	5.626107e-01	5.660237e-01	5.672257e-01	5.683428e-01	5.688107e-01	5.693878e-01	5.710337e-01	5.690417e-01	5.658751e-01	5.631378e-01	5.612219e-01	5.603721e-01	5.597668e-01	5.575690e-01	5.557112e-01	5.530524e-01	5.450523e-01	5.485811e-01	3.809014e-01	4.056254e-01	3.339985e-01	3.476838e-01	4.305057e-01	5.327930e-01	5.763201e-01	6.270086e-01	7.123723e-01	7.842010e-01	8.758347e-01	1.087808e+00	1.408189e+00	1.758858e+00	
SCALARS X-Momentum float 1
LOOKUP_TABLE default
0.000000e+00	0.000000e+00	0.000000e+00	0.000000e+00	0.000000e+00	0.000000e+00	0.000000e+00	0.000000e+00	0.000000e+00	0.000000e+00	0.000000e+00	0.000000e+00	0.000000e+00	0.000000e+00	0.000000e+00	0.000000e+00	0.000000e+00	0.000000e+00	0.000000e+00	0.000000e+00	0.000000e+00	0.000000e+00	0.000000e+00	0.000000e+00	0.000000e+00	0.000000e+00	0.000000e+00	0.000000e+00	0.000000e+00	0.000000e+00	0.000000e+00	0.000000e+00	0.000000e+00	0.000000e+00	0.000000e+00	0.000000e+00	0.000000e+00	0.000000e+00	0.000000e+00	0.000000e+00	0.000000e+00	0.000000e+00	0.000000e+00	0.000000e+00	0.000000e+00	0.000000e+00	0.000000e+00	0.000000e+00	0.000000e+00	0.000000e+00	0.000000e+00	0.000000e+00	0.000000e+00	0.000000e+00	0.000000e+00	0.000000e+00	0.000000e+00	0.000000e+00	0.000000e+00	0.000000e+00	0.000000e+00	0.000000e+00	0.000000e+00	0.000000e+00	0.000000e+00	0.000000e+00	0.000000e+00	0.000000e+00	0.000000e+00	0.000000e+00	0.000000e+00	0.000000e+00	0.000000e+00	0.000000e+00	0.000000e+00	0.000000e+00	0.000000e+00	0.000000e+00	0.000000e+00	0.000000e+00	0.000000e+00	0.000000e+00	0.000000e+00	0.000000e+00	0.000000e+00	0.000000e+00	0.000000e+00	0.000000e+00	0.000000e+00	0.000000e+00	0.000000e+00	0.000000e+00	0.000000e+00	0.000000e+00	0.000000e+00	0.000000e+00	0.000000e+00	0.000000e+00	0.000000e+00	0.000000e+00	0.000000e+00	0.000000e+00	0.000000e+00	0.000000e+00	0.000000e+00	0.000000e+00	0.000000e+00	0.000000e+00	0.000000e+00	0.000000e+00	0.000000e+00	0.000000e+00	0.000000e+00	0.000000e+00	0.000000e+00	0.000000e+00	0.000000e+00	0.000000e+00	0.000000e+00	0.000000e+00	0.000000e+00	0.000000e+00	0.000000e+00	0.000000e+00	0.000000e+00	0.000000e+00	0.000000e+00	0.000000e+00	0.000000e+00	0.000000e+00	0.000000e+00	0.000000e+00	0.000000e+00	0.000000e+00	0.000000e+00	0.000000e+00	0.000000e+00	0.000000e+00	0.000000e+00	0.000000e+00	0.000000e+00	0.000000e+00	0.000000e+00	0.000000e+00	0.000000e+00	0.000000e+00	0.000000e+00	0.000000e+00	0.000000e+00	0.000000e+00	0.000000e+00	0.000000e+00	0.000000e+00	0.000000e+00	0.000000e+00	0.000000e+00	0.000000e+00	0.000000e+00	0.000000e+00	0.000000e+00	0.000000e+00	0.000000e+00	0.000000e+00	0.000000e+00	0.000000e+00	0.000000e+00	0.000000e+00	0.000000e+00	0.000000e+00	0.000000e+00	0.000000e+00	0.000000e+00	0.000000e+00	0.000000e+00	0.000000e+00	0.000000e+00	0.000000e+00	0.000000e+00	0.000000e+00	0.000000e+00	0.000000e+00	0.000000e+00	0.000000e+00	0.000000e+00	0.000000e+00	0.000000e+00	0.000000e+00	0.000000e+00	0.000000e+00	0.000000e+00	0.000000e+00	0.000000e+00	0.000000e+00	0.000000e+00	0.000000e+00	0.000000e+00	0.000000e+00	0.000000e+00	0.000000e+00	0.000000e+00	0.000000e+00	0.000000e+00	0.000000e+00	0.000000e+00	0.000000e+00	0.000000e+00	0.000000e+00	0.000000e+00	0.000000e+00	0.000000e+00	0.000000e+00	0.000000e+00	0.000000e+00	0.000000e+00	0.000000e+00	0.000000e+00	0.000000e+00	0.000000e+00	0.000000e+00	0.000000e+00	0.000000e+00	0.000000e+00	0.000000e+00	0.000000e+00	0.000000e+00	0.000000e+00	0.000000e+00	0.000000e+00	0.000000e+00	0.000000e+00	0.000000e+00	0.000000e+00	0.000000e+00	0.000000e+00	0.000000e+00	0.000000e+00	0.000000e+00	0.000000e+00	0.000000e+00	0.000000e+00	0.000000e+00	0.000000e+00	0.000000e+00	0.000000e+00	0.000000e+00	0.000000e+00	0.000000e+00	0.000000e+00	0.000000e+00	0.000000e+00	0.000000e+00	0.000000e+00	0.000000e+00	0.000000e+00	0.000000e+00	0.000000e+00	0.000000e+00	0.000000e+00	0.000000e+00	0.000000e+00	0.000000e+00	0.000000e+00	0.000000e+00	0.000000e+00	0.000000e+00	0.000000e+00	0.000000e+00	0.000000e+00	0.000000e+00	0.000000e+00	0.000000e+00	0.000000e+00	0.000000e+00	0.000000e+00	0.000000e+00	0.000000e+00	0.000000e+00	0.000000e+00	0.000000e+00	0.000000e+00	0.000000e+00	0.000000e+00	0.000000e+00	0.000000e+00	0.000000e+00	0.000000e+00	0.000000e+00	0.000000e+00	0.000000e+00	0.000000e+00	0.000000e+00	0.000000e+00	0.000000e+00	0.000000e+00	0.000000e+00	0.000000e+00	0.000000e+00	0.000000e+00	0.000000e+00	0.000000e+00	0.000000e+00	0.000000e+00	0.000000e+00	0.000000e+00	0.000000e+00	0.000000e+00	0.000000e+00	0.000000e+00	0.000000e+00	0.000000e+00	0.000000e+00	0.000000e+00	0.000000e+00	0.000000e+00	0.000000e+00	0.000000e+00	0.000000e+00	0.000000e+00	0.000000e+00	0.000000e+00	0.000000e+00	0.000000e+00	0.000000e+00	0.000000e+00	
SCALARS Y-Momentum float 1
LOOKUP_TABLE default
7.468524e+02	8.358378e+02	5.812941e+02	6.041127e+02	5.973989e+02	6.142979e+02	6.287876e+02	6.466317e+02	6.518010e+02	6.624020e+02	6.720460e+02	6.760541e+02	6.804435e+02	6.894939e+02	6.972079e+02	6.993786e+02	7.014659e+02	7.090103e+02	7.146132e+02	7.165209e+02	7.158014e+02	7.221181e+02	7.268249e+02	7.307069e+02	7.307372e+02	7.342269e+02	7.404564e+02	7.486064e+02	7.560571e+02	7.605732e+02	7.656386e+02	7.671972e+02	7.695054e+02	7.743981e+02	7.817594e+02	7.894369e+02	7.980688e+02	8.065408e+02	8.153322e+02	8.251008e+02	8.353278e+02	8.462981e+02	8.582447e+02	8.742951e+02	8.874332e+02	9.110475e+02	9.276809e+02	9.350340e+02	8.928352e+02	6.379050e+02	5.909090e+02	5.663445e+02	5.552183e+02	5.404839e+02	5.311842e+02	5.268819e+02	5.253322e+02	5.221311e+02	5.158796e+02	5.073693e+02	4.970726e+02	4.842888e+02	4.720672e+02	4.643352e+02	4.601592e+02	4.564987e+02	4.505560e+02	4.426901e+02	4.328315e+02	4.217401e+02	4.112757e+02	4.031802e+02	3.972143e+02	3.927022e+02	3.885453e+02	3.842368e+02	3.790072e+02	3.725773e+02	3.639175e+02	3.546220e+02	3.457525e+02	3.386179e+02	3.330499e+02	3.288569e+02	3.257301e+02	3.230141e+02	3.205266e+02	3.181212e+02	3.156271e+02	3.121721e+02	3.076260e+02	3.014564e+02	2.943755e+02	2.869397e+02	2.804184e+02	2.753479e+02	2.716928e+02	2.694006e+02	2.679139e+02	2.667066e+02	2.656699e+02	2.646217e+02	2.632462e+02	2.606758e+02	2.569346e+02	2.517668e+02	2.461967e+02	2.417477e+02	2.394731e+02	2.385698e+02	2.372975e+02	2.342185e+02	2.295031e+02	2.255774e+02	2.232182e+02	2.224644e+02	2.221119e+02	2.214390e+02	2.199670e+02	2.170311e+02	2.127841e+02	2.084157e+02	2.050490e+02	2.027443e+02	2.017803e+02	2.015810e+02	2.018695e+02	2.019841e+02	2.046090e+02	2.143471e+02	2.388068e+02	2.655672e+02	2.855938e+02	2.970453e+02	3.076050e+02	3.132342e+02	3.176886e+02	3.218992e+02	3.249972e+02	3.280834e+02	3.306461e+02	3.328002e+02	3.346083e+02	3.362949e+02	3.374640e+02	3.379967e+02	3.374779e+02	3.404100e+02	3.402550e+02	3.259665e+02	3.222456e+02	3.497197e+02	3.340322e+02	3.047217e+02	3.135783e+02	3.198792e+02	3.245491e+02	3.270983e+02	3.271917e+02	3.289478e+02	3.318493e+02	3.340351e+02	3.350451e+02	3.358281e+02	3.375457e+02	3.388700e+02	3.393317e+02	3.399565e+02	3.404997e+02	3.408153e+02	3.409546e+02	3.409102e+02	3.408767e+02	3.408065e+02	3.407264e+02	3.406397e+02	3.404859e+02	3.402425e+02	3.399242e+02	3.395922e+02	3.393269e+02	3.390494e+02	3.386758e+02	3.382430e+02	3.377550e+02	3.371859e+02	3.365528e+02	3.359110e+02	3.352704e+02	3.346851e+02	3.341569e+02	3.337096e+02	3.332324e+02	3.326447e+02	3.319061e+02	3.310400e+02	3.302077e+02	3.293878e+02	3.286373e+02	3.280148e+02	3.275218e+02	3.271222e+02	3.266331e+02	3.258366e+02	3.249213e+02	3.239317e+02	3.229471e+02	3.219648e+02	3.210261e+02	3.201489e+02	3.193524e+02	3.186185e+02	3.179471e+02	3.171991e+02	3.165867e+02	3.159995e+02	3.148470e+02	3.133910e+02	3.119268e+02	3.105636e+02	3.092770e+02	3.081318e+02	3.067372e+02	3.048843e+02	3.029406e+02	3.010265e+02	2.993479e+02	2.978946e+02	2.965420e+02	2.948879e+02	2.929890e+02	2.914820e+02	2.908248e+02	2.903572e+02	2.887665e+02	2.873890e+02	2.862625e+02	2.851248e+02	2.837609e+02	2.824091e+02	2.812745e+02	2.803735e+02	2.798485e+02	2.791078e+02	2.779041e+02	2.765815e+02	2.753128e+02	2.740565e+02	2.725981e+02	2.728787e+02	2.673745e+02	2.638437e+02	2.617323e+02	2.584050e+02	2.540799e+02	2.477818e+02	2.430260e+02	2.385002e+02	2.337072e+02	2.281327e+02	2.219718e+02	2.150337e+02	2.078629e+02	2.007176e+02	1.950532e+02	1.903220e+02	1.853759e+02	1.779312e+02	1.698747e+02	1.619926e+02	1.561781e+02	1.527233e+02	1.510567e+02	1.495758e+02	1.454329e+02	1.403058e+02	1.361721e+02	1.344365e+02	1.352263e+02	1.383017e+02	1.410645e+02	1.411494e+02	1.408281e+02	1.414699e+02	1.454505e+02	1.503178e+02	1.543174e+02	1.566253e+02	1.584998e+02	1.607205e+02	1.633752e+02	1.655491e+02	1.674701e+02	1.684860e+02	1.688438e+02	1.691763e+02	1.693156e+02	1.694874e+02	1.699773e+02	1.693844e+02	1.684418e+02	1.676270e+02	1.670567e+02	1.668037e+02	1.666236e+02	1.659693e+02	1.654163e+02	1.646249e+02	1.622436e+02	1.632939e+02	1.133814e+02	1.207409e+02	9.942001e+01	1.034936e+02	1.281469e+02	1.585943e+02	1.715509e+02	1.866391e+02	2.120490e+02	2.334300e+02	2.607062e+02	3.238036e+02	4.191700e+02	5.235523e+02	
SCALARS Energy float 1
LOOKUP_TABLE default