# vtk DataFile Version 3.0
vtk output
ASCII

DATASET UNSTRUCTURED_GRID
POINTS 720 float
0 0.0126974661710734 0.0  0 0.0165465183368095 0.0  0 0.0196557597404728 0.0  0 0.0223363048170463 0.0  0 0.0247279626088529 0.0  0 0.026907875365581 0.0  0 0.0289239585567823 0.0  0 0.03080839172205 0.0  0 0.0325840240363908 0.0  0 0.0342677726779684 0.0  0 0.0358725781930116 0.0  0 0.0374086017931511 0.0  0 0.0388839955511695 0.0  0 0.0403054181460531 0.0  0 0.0416783919295479 0.0  0 0.0430075571933331 0.0  0 0.0442968576497548 0.0  0 0.0455496785888491 0.0  0 0.0467689516822034 0.0  0 0.0479572357768574 0.0  -0.00220489186159439 0.0125045631288833 0.0  -0.00287327275591941 0.0162951395434486 0.0  -0.00341318685959211 0.0193571445837628 0.0  -0.00387865862729317 0.0219969661574712 0.0  -0.00429396564444329 0.0243522892933943 0.0  -0.00467250352212203 0.0264990842771104 0.0  -0.00502259269429906 0.028484538634523 0.0  -0.00534982107938292 0.030340343025712 0.0  -0.00565815639497473 0.0320889994953738 0.0  -0.00595053627823383 0.0337471682117231 0.0  -0.00622920783143093 0.0353275931250145 0.0  -0.00649593553044855 0.0368402810752416 0.0  -0.0067521349678696 0.0382932602868839 0.0  -0.00699896241116574 0.039693088278632 0.0  -0.00723737680665409 0.0410452035053002 0.0  -0.00746818393252858 0.0423541757621104 0.0  -0.00769206860725134 0.0436238888475566 0.0  -0.00790961868026804 0.0448576766215127 0.0  -0.00812134323100733 0.0460584262168872 0.0  -0.0083276865985946 0.0472286576060836 0.0  -0.00434278919970336 0.0119317152636364 0.0  -0.00565924257309638 0.0155486411807986 0.0  -0.0067226657636114 0.018470372384063 0.0  -0.00763946617489201 0.0209892608122032 0.0  -0.00845746131563163 0.0232366839906089 0.0  -0.00920303538912526 0.0252851319220634 0.0  -0.00989257645113639 0.0271796304197258 0.0  -0.0105370905524089 0.028950418359492 0.0  -0.0111443925710534 0.0306189669425071 0.0  -0.0117202685227702 0.0322011731162558 0.0  -0.0122691443350351 0.0337091970165385 0.0  -0.0127944953469064 0.0351525870589426 0.0  -0.0132991097314856 0.036539003686106 0.0  -0.0137852648911141 0.0378747040095365 0.0  -0.0142548495813274 0.0391648773424191 0.0  -0.0147094508753507 0.0404138841326031 0.0  -0.0151504176022459 0.0416254302574784 0.0  -0.0155789075993963 0.0428026968491114 0.0  -0.0159959235575385 0.0439484387776592 0.0  -0.0164023406539037 0.0450650605728029 0.0  -0.00634873308553671 0.0109963282678431 0.0  -0.00827325916840473 0.014329705223862 0.0  -0.00982787987023637 0.0170223872659328 0.0  -0.0111681524085232 0.0193438073982349 0.0  -0.0123639813044264 0.0214150438030983 0.0  -0.0134539376827905 0.0233029036284587 0.0  -0.0144619792783912 0.0250488828881818 0.0  -0.015404195861025 0.0266808498810375 0.0  -0.0162920120181954 0.0282185925730372 0.0  -0.0171338863389842 0.0296767616702309 0.0  -0.0179362890965058 0.0310665640143917 0.0  -0.0187043008965756 0.032396799472925 0.0  -0.0194419977755847 0.0336745279479539 0.0  -0.0201527090730265 0.0349055160246363 0.0  -0.0208391959647739 0.0360945461998728 0.0  -0.0215037785966666 0.0372456370841387 0.0  -0.0221484288248774 0.0383622040325107 0.0  -0.0227748392944245 0.0394471787921594 0.0  -0.0233844758411017 0.0405031002651551 0.0  -0.0239786178884287 0.0415321844780385 0.0  -0.00816177392917998 0.009726823402042 0.0  -0.0106358969703522 0.0126753684248792 0.0  -0.0126344788201514 0.0150571855244709 0.0  -0.0143574999825791 0.01711060218491 0.0  -0.0158948279777626 0.0189427183461656 0.0  -0.0172960488879851 0.0206126283999414 0.0  -0.0185919621833866 0.0221570377254267 0.0  -0.0198032524733031 0.0236005972801091 0.0  -0.0209446069243204 0.0249608105475324 0.0  -0.022026899688953 0.026250636838022 0.0  -0.0230584487899794 0.0274799891851076 0.0  -0.0240457857283352 0.0286566515284941 0.0  -0.0249941505553982 0.0297868687182364 0.0  -0.0259078233875179 0.0308757415983708 0.0  -0.0267903539239728 0.031927500535765 0.0  -0.0276447248867597 0.0329457002000745 0.0  -0.0284734712453108 0.033933361650227 0.0  -0.0292787690221164 0.0348930781688433 0.0  -0.0300625026593488 0.0358270955466519 0.0  -0.0308263169521799 0.0367373739742083 0.0  -0.009726823402042 0.00816177392917998 0.0  -0.0126753684248792 0.0106358969703522 0.0  -0.0150571855244709 0.0126344788201514 0.0  -0.01711060218491 0.0143574999825791 0.0  -0.0189427183461656 0.0158948279777626 0.0  -0.0206126283999414 0.0172960488879851 0.0  -0.0221570377254267 0.0185919621833866 0.0  -0.0236005972801091 0.0198032524733031 0.0  -0.0249608105475324 0.0209446069243204 0.0  -0.026250636838022 0.022026899688953 0.0  -0.0274799891851076 0.0230584487899794 0.0  -0.0286566515284941 0.0240457857283352 0.0  -0.0297868687182364 0.0249941505553983 0.0  -0.0308757415983708 0.0259078233875179 0.0  -0.031927500535765 0.0267903539239728 0.0  -0.0329457002000745 0.0276447248867597 0.0  -0.033933361650227 0.0284734712453108 0.0  -0.0348930781688433 0.0292787690221164 0.0  -0.0358270955466519 0.0300625026593488 0.0  -0.0367373739742083 0.03082631695218 0.0  -0.0109963282678431 0.00634873308553671 0.0  -0.014329705223862 0.00827325916840473 0.0  -0.0170223872659328 0.00982787987023638 0.0  -0.0193438073982348 0.0111681524085232 0.0  -0.0214150438030983 0.0123639813044264 0.0  -0.0233029036284587 0.0134539376827905 0.0  -0.0250488828881818 0.0144619792783912 0.0  -0.0266808498810375 0.015404195861025 0.0  -0.0282185925730372 0.0162920120181954 0.0  -0.0296767616702309 0.0171338863389842 0.0  -0.0310665640143917 0.0179362890965058 0.0  -0.032396799472925 0.0187043008965756 0.0  -0.0336745279479539 0.0194419977755847 0.0  -0.0349055160246363 0.0201527090730265 0.0  -0.0360945461998728 0.0208391959647739 0.0  -0.0372456370841387 0.0215037785966666 0.0  -0.0383622040325107 0.0221484288248774 0.0  -0.0394471787921594 0.0227748392944245 0.0  -0.0405031002651551 0.0233844758411017 0.0  -0.0415321844780385 0.0239786178884287 0.0  -0.0119317152636364 0.00434278919970336 0.0  -0.0155486411807986 0.00565924257309638 0.0  -0.018470372384063 0.0067226657636114 0.0  -0.0209892608122032 0.00763946617489201 0.0  -0.0232366839906089 0.00845746131563163 0.0  -0.0252851319220634 0.00920303538912526 0.0  -0.0271796304197258 0.00989257645113639 0.0  -0.028950418359492 0.0105370905524089 0.0  -0.0306189669425071 0.0111443925710534 0.0  -0.0322011731162558 0.0117202685227702 0.0  -0.0337091970165385 0.0122691443350351 0.0  -0.0351525870589426 0.0127944953469064 0.0  -0.036539003686106 0.0132991097314856 0.0  -0.0378747040095365 0.0137852648911141 0.0  -0.0391648773424191 0.0142548495813274 0.0  -0.0404138841326031 0.0147094508753507 0.0  -0.0416254302574784 0.0151504176022459 0.0  -0.0428026968491114 0.0155789075993963 0.0  -0.0439484387776592 0.0159959235575385 0.0  -0.0450650605728029 0.0164023406539037 0.0  -0.0125045631288833 0.0022048918615944 0.0  -0.0162951395434486 0.00287327275591941 0.0  -0.0193571445837628 0.00341318685959211 0.0  -0.0219969661574712 0.00387865862729317 0.0  -0.0243522892933943 0.00429396564444329 0.0  -0.0264990842771104 0.00467250352212204 0.0  -0.028484538634523 0.00502259269429907 0.0  -0.030340343025712 0.00534982107938292 0.0  -0.0320889994953738 0.00565815639497473 0.0  -0.0337471682117231 0.00595053627823383 0.0  -0.0353275931250145 0.00622920783143093 0.0  -0.0368402810752416 0.00649593553044856 0.0  -0.0382932602868839 0.00675213496786961 0.0  -0.039693088278632 0.00699896241116575 0.0  -0.0410452035053002 0.00723737680665409 0.0  -0.0423541757621104 0.00746818393252858 0.0  -0.0436238888475566 0.00769206860725134 0.0  -0.0448576766215127 0.00790961868026804 0.0  -0.0460584262168872 0.00812134323100733 0.0  -0.0472286576060836 0.00832768659859461 0.0  -0.0126974661710734 7.77495565184343e-19 0.0  -0.0165465183368095 1.01318203591033e-18 0.0  -0.0196557597404728 1.20356816254897e-18 0.0  -0.0223363048170463 1.36770420994877e-18 0.0  -0.0247279626088529 1.51415101291835e-18 0.0  -0.026907875365581 1.64763217191574e-18 0.0  -0.0289239585567823 1.77108166326171e-18 0.0  -0.03080839172205 1.88646991546432e-18 0.0  -0.0325840240363908 1.99519603697532e-18 0.0  -0.0342677726779684 2.09829590619915e-18 0.0  -0.0358725781930116 2.19656190306174e-18 0.0  -0.0374086017931511 2.29061622232802e-18 0.0  -0.0388839955511695 2.38095803448998e-18 0.0  -0.0403054181460531 2.46799506604298e-18 0.0  -0.0416783919295479 2.55206546350648e-18 0.0  -0.0430075571933331 2.63345336279811e-18 0.0  -0.0442968576497548 2.71240024665291e-18 0.0  -0.0455496785888491 2.78911340430124e-18 0.0  -0.0467689516822034 2.86377234885438e-18 0.0  -0.0479572357768574 2.93653376450417e-18 0.0  -0.0125045631288833 -0.00220489186159439 0.0  -0.0162951395434486 -0.00287327275591941 0.0  -0.0193571445837628 -0.00341318685959211 0.0  -0.0219969661574712 -0.00387865862729317 0.0  -0.0243522892933943 -0.00429396564444329 0.0  -0.0264990842771104 -0.00467250352212203 0.0  -0.028484538634523 -0.00502259269429906 0.0  -0.030340343025712 -0.00534982107938292 0.0  -0.0320889994953738 -0.00565815639497472 0.0  -0.0337471682117231 -0.00595053627823383 0.0  -0.0353275931250145 -0.00622920783143093 0.0  -0.0368402810752416 -0.00649593553044855 0.0  -0.0382932602868839 -0.0067521349678696 0.0  -0.039693088278632 -0.00699896241116574 0.0  -0.0410452035053002 -0.00723737680665408 0.0  -0.0423541757621104 -0.00746818393252858 0.0  -0.0436238888475566 -0.00769206860725134 0.0  -0.0448576766215127 -0.00790961868026803 0.0  -0.0460584262168872 -0.00812134323100733 0.0  -0.0472286576060836 -0.0083276865985946 0.0  -0.0119317152636364 -0.00434278919970336 0.0  -0.0155486411807986 -0.00565924257309638 0.0  -0.018470372384063 -0.0067226657636114 0.0  -0.0209892608122032 -0.00763946617489201 0.0  -0.0232366839906089 -0.00845746131563163 0.0  -0.0252851319220634 -0.00920303538912526 0.0  -0.0271796304197258 -0.00989257645113639 0.0  -0.028950418359492 -0.0105370905524089 0.0  -0.0306189669425071 -0.0111443925710534 0.0  -0.0322011731162558 -0.0117202685227702 0.0  -0.0337091970165385 -0.0122691443350351 0.0  -
[...]
POINT_DATA 720
SCALARS PT/PT_inf float
LOOKUP_TABLE default
0.270048082893741 0.270048082893741 0.270048082893741 0.270048082893741 0.270048082893741 0.270048082893741 0.270048082893741 0.270048082893741 0.270048082893741 0.270048082893741 0.270048082893741 0.270048082893741 0.270048082893741 0.270048082893741 0.270048082893741 0.270048082893741 0.270048082893741 0.270048082893741 0.270048082893741 0.270048082893741 0.288576590324778 0.298045976767372 0.298045976767372 0.30686998422382 0.30686998422382 0.314741557340845 0.314741557340845 0.314741557340845 0.314741557340845 0.314741557340845 0.314741557340845 0.321771236310546 0.321771236310546 0.321771236310546 0.321771236310546 0.321771236310546 0.321771236310546 0.321771236310546 0.328436121614198 0.328436121614198 0.30686998422382 0.314741557340845 0.321771236310546 0.321771236310546 0.328436121614198 1.07457851593849 1.07457851593849 1.07457851593849 1.07457851593849 1.07457851593849 1.07457851593849 1.07457851593849 1.07457851593849 1.07457851593849 1.07457851593849 1.07457851593849 1.07457851593849 1.07457851593849 1.07457851593849 1.07457851593849 0.321771236310546 0.328436121614198 1.07457851593849 1.07457851593849 1.07457851593849 1.07457851593849 1.07457851593849 1.07457851593849 1.07457851593849 1.07457851593849 1.07457851593849 1.07457851593849 1.07457851593849 1.07457851593849 1.07457851593849 1.07457851593849 1.07457851593849 1.07457851593849 1.07457851593849 1.07457851593849 0.328436121614198 1.07457851593849 1.07457851593849 1.07457851593849 1.07457851593849 1.07457851593849 1.07457851593849 1.07457851593849 1.07457851593849 1.07457851593849 1.07457851593849 1.07457851593849 1.07457851593849 1.07457851593849 1.07457851593849 1.07457851593849 1.07457851593849 1.07457851593849 1.07457851593849 1.07457851593849 1.07457851593849 1.07457851593849 1.07457851593849 1.07457851593849 1.07457851593849 1.07457851593849 1.07457851593849 1.07457851593849 1.07457851593849 1.07457851593849 1.07457851593849 1.07457851593849 1.07457851593849 1.07457851593849 1.07457851593849 1.07457851593849 1.07457851593849 1.07457851593849 1.07457851593849 1.07457851593849 1.07457851593849 1.07457851593849 1.07457851593849 1.07457851593849 1.07457851593849 1.07457851593849 1.07457851593849 1.07457851593849 1.07457851593849 1.07457851593849 1.07457851593849 1.07457851593849 1.07457851593849 1.07457851593849 1.07457851593849 1.07457851593849 1.07457851593849 1.07457851593849 1.07457851593849 1.07457851593849 1.07457851593849 1.07457851593849 1.07457851593849 1.07457851593849 1.07457851593849 1.07457851593849 1.07457851593849 1.07457851593849 1.07457851593849 1.07457851593849 1.07457851593849 1.07457851593849 1.07457851593849 1.07457851593849 1.07457851593849 1.07457851593849 1.07457851593849 1.07457851593849 1.07457851593849 0.457926930367111 1.07457851593849 1.07457851593849 1.07457851593849 1.07457851593849 1.07457851593849 1.07457851593849 1.07457851593849 1.07457851593849 1.07457851593849 1.07457851593849 1.07457851593849 1.07457851593849 1.07457851593849 1.07457851593849 1.07457851593849 1.07457851593849 1.07457851593849 0.457926930367111 0.459033762977803 0.462173595597817 1.07457851593849 1.07457851593849 1.07457851593849 1.07457851593849 1.07457851593849 1.07457851593849 1.07457851593849 1.07457851593849 1.07457851593849 1.07457851593849 1.07457851593849 1.07457851593849 1.07457851593849 1.07457851593849 1.07457851593849 1.07457851593849 1.07457851593849 0.459033762977803 0.46103121219598 0.463418658540826 1.07457851593849 1.07457851593849 1.07457851593849 1.07457851593849 1.07457851593849 1.07457851593849 1.07457851593849 1.07457851593849 1.07457851593849 1.07457851593849 1.07457851593849 1.07457851593849 1.07457851593849 1.07457851593849 1.07457851593849 1.07457851593849 1.07457851593849 0.457926930367111 0.459033762977803 0.462173595597817 1.07457851593849 1.07457851593849 1.07457851593849 1.07457851593849 1.07457851593849 1.07457851593849 1.07457851593849 1.07457851593849 1.07457851593849 1.07457851593849 1.07457851593849 1.07457851593849 1.07457851593849 1.07457851593849 1.07457851593849 1.07457851593849 1.07457851593849 1.07457851593849 1.07457851593849 0.457926930367111 1.07457851593849 1.07457851593849 1.07457851593849 1.07457851593849 1.07457851593849 1.07457851593849 1.07457851593849 1.07457851593849 1.07457851593849 1.07457851593849 1.07457851593849 1.07457851593849 1.07457851593849 1.07457851593849 1.07457851593849 1.07457851593849 1.07457851593849 1.07457851593849 1.07457851593849 1.07457851593849 1.07457851593849 1.07457851593849 1.07457851593849 1.07457851593849 1.07457851593849 1.07457851593849 1.07457851593849 1.07457851593849 1.07457851593849 1.07457851593849 1.07457851593849 1.07457851593849 1.07457851593849 1.07457851593849 1.07457851593849 1.07457851593849 1.07457851593849 1.07457851593849 1.07457851593849 1.07457851593849 0.328436121614198 1.07457851593849 1.07457851593849 1.07457851593849 1.07457851593849 1.07457851593849 1.07457851593849 1.07457851593849 1.07457851593849 1.07457851593849 1.07457851593849 1.07457851593849 1.07457851593849 1.07457851593849 1.07457851593849 1.07457851593849 1.07457851593849 1.07457851593849 1.07457851593849 1.07457851593849 0.321771236310546 0.328436121614198 1.07457851593849 1.07457851593849 1.07457851593849 1.07457851593849 1.07457851593849 1.07457851593849 1.07457851593849 1.07457851593849 1.07457851593849 1.07457851593849 1.07457851593849 1.07457851593849 1.07457851593849 1.07457851593849 1.07457851593849 1.07457851593849 1.07457851593849 1.07457851593849 0.30686998422382 0.314741557340845 0.321771236310546 0.321771236310546 0.328436121614198 1.07457851593849 1.07457851593849 1.07457851593849 1.07457851593849 1.07457851593849 1.07457851593849 1.07457851593849 1.07457851593849 1.07457851593849 1.07457851593849 1.07457851593849 1.07457851593849 1.07457851593849 1.07457851593849 1.07457851593849 0.288576590324778 0.298045976767372 0.298045976767372 0.30686998422382 0.30686998422382 0.314741557340845 0.314741557340845 0.314741557340845 0.314741557340845 0.314741557340845 0.314741557340845 0.321771236310546 0.321771236310546 0.321771236310546 0.321771236310546 0.321771236310546 0.321771236310546 0.321771236310546 0.328436121614198 0.328436121614198 0.270048082893741 0.270048082893741 0.270048082893741 0.270048082893741 0.270048082893741 0.270048082893741 0.270048082893741 0.270048082893741 0.270048082893741 0.270048082893741 0.270048082893741 0.270048082893741 0.270048082893741 0.270048082893741 0.270048082893741 0.270048082893741 0.270048082893741 0.270048082893741 0.270048082893741 0.270048082893741 0.262588369554845 0.256167763836042 0.256167763836042 0.256167763836042 0.256167763836042 0.256167763836042 0.248955858943524 0.248955858943524 0.248955858943524 0.248955858943524 0.248955858943524 0.248955858943524 0.239725716254994 0.239725716254994 0.239725716254994 0.239725716254994 0.239725716254994 0.239725716254994 0.239725716254994 0.239725716254994 0.256167763836042 0.248955858943524 0.239725716254994 0.239725716254994 0.239725716254994 0.229980253680599 0.229980253680599 0.229980253680599 0.220679579111983 0.220679579111983 0.220679579111983 0.220679579111983 0.213644083839384 0.213644083839384 0.213644083839384 0.213644083839384 0.213644083839384 0.213644083839384 0.213644083839384 0.209618528379014 0.248955858943524 0.239725716254994 0.229980253680599 0.220679579111983 0.220679579111983 0.213644083839384 0.213644083839384 0.213644083839384 0.209618528379014 0.209618528379014 0.209618528379014 0.209618528379014 0.209618528379014 0.20767694139139 0.20767694139139 0.20767694139139 0.20767694139139 0.205237398054435 0.205237398054435 0.205237398054435 0.239725716254994 0.220679579111983 0.220679579111983 0.213644083839384 0.213644083839384 0.209618528379014 0.209618528379014 0.20767694139139 0.20767694139139 0.20767694139139 0.205237398054435 0.205237398054435 0.199932163706928 0.199932163706928 0.199932163706928 0.199932163706928 0.199932163706928 0.19327432630499 0.19327432630499 0.19327432630499 0.229980253680599 0.220679579111983 0.213644083839384 0.209618528379014 0.209618528379014 0.20767694139139 0.20767694139139 0.205237398054435 0.199932163706928 0.199932163706928 0.199932163706928 0.199932163706928 0.19327432630499 0.19327432630499 0.19327432630499 0.19327432630499 0.19327432630499 0.19327432630499 0.18894198133206 0.18894198133206 0.220679579111983 0.213644083839384 0.209618528379014 0.209618528379014 0.20767694139139 0.205237398054435 0.199932163706928 0.199932163706928 0.199932163706928 0.19327432630499 0.19327432630499 0.19327432630499 0.19327432630499 0.19327432630499 0.18894198133206 0.18894198133206 0.18894198133206 0.18894198133206 0.18894198133206 0.18894198133206 0.220679579111983 0.213644083839384 0.209618528379014 0.20767694139139 0.205237398054435 0.199932163706928 0.199932163706928 0.19327432630499 0.19327432630499 0.19327432630499 0.19327432630499 0.19327432630499 0.18894198133206 0.18894198133206 0.18894198133206 0.18894198133206 0.18894198133206 0.18894198133206 0.18894198133206 0.18894198133206 0.220679579111983 0.209618528379014 0.209618528379014 0.20767694139139 0.205237398054435 0.199932163706928 0.199932163706928 0.19327432630499 0.19327432630499 0.19327432630499 0.19327432630499 0.18894198133206 0.18894198133206 0.18894198133206 0.18894198133206 0.18894198133206 0.18894198133206 0.18894198133206 0.186472394380697 0.186472394380697 0.220679579111983 0.209618528379014 0.20767694139139 0.205237398054435 0.205237398054435 0.199932163706928 0.19327432630499 0.19327432630499 0.19327432630499 0.19327432630499 0.18894198133206 0.18894198133206 0.18894198133206 0.18894198133206 0.18894198133206 0.18894198133206 0.18894198133206 0.186472394380697 0.186472394380697 0.186472394380697 0.220679579111983 0.209618528379014 0.209618528379014 0.20767694139139 0.205237398054435 0.199932163706928 0.199932163706928 0.19327432630499 0.19327432630499 0.19327432630499 0.19327432630499 0.18894198133206 0.18894198133206 0.18894198133206 0.18894198133206 0.18894198133206 0.18894198133206 0.18894198133206 0.186472394380697 0.186472394380697 0.220679579111983 0.213644083839384 0.209618528379014 0.20767694139139 0.205237398054435 0.199932163706928 0.199932163706928 0.19327432630499 0.19327432630499 0.19327432630499 0.19327432630499 0.19327432630499 0.18894198133206 0.18894198133206 0.18894198133206 0.18894198133206 0.18894198133206 0.18894198133206 0.18894198133206 0.18894198133206 0.220679579111983 0.213644083839384 0.209618528379014 0.209618528379014 0.20767694139139 0.205237398054435 0.199932163706928 0.199932163706928 0.199932163706928 0.19327432630499 0.19327432630499 0.19327432630499 0.19327432630499 0.19327432630499 0.18894198133206 0.18894198133206 0.18894198133206 0.18894198133206 0.18894198133206 0.18894198133206 0.229980253680599 0.220679579111983 0.213644083839384 0.209618528379014 0.209618528379014 0.20767694139139 0.20767694139139 0.205237398054435 0.199932163706928 0.199932163706928 0.199932163706928 0.199932163706928 0.19327432630499 0.19327432630499 0.19327432630499 0.19327432630499 0.19327432630499 0.19327432630499 0.18894198133206 0.18894198133206 0.239725716254994 0.220679579111983 0.220679579111983 0.213644083839384 0.213644083839384 0.209618528379014 0.209618528379014 0.20767694139139 0.20767694139139 0.20767694139139 0.205237398054435 0.205237398054435 0.199932163706928 0.199932163706928 0.199932163706928 0.199932163706928 0.199932163706928 0.19327432630499 0.19327432630499 0.19327432630499 0.248955858943524 0.239725716254994 0.229980253680599 0.220679579111983 0.220679579111983 0.213644083839384 0.213644083839384 0.213644083839384 0.209618528379014 0.209618528379014 0.209618528379014 0.209618528379014 0.209618528379014 0.20767694139139 0.20767694139139 0.20767694139139 0.20767694139139 0.205237398054435 0.205237398054435 0.205237398054435 0.256167763836042 0.248955858943524 0.239725716254994 0.239725716254994 0.239725716254994 0.229980253680599 0.229980253680599 0.229980253680599 0.220679579111983 0.220679579111983 0.220679579111983 0.220679579111983 0.213644083839384 0.213644083839384 0.213644083839384 0.213644083839384 0.213644083839384 0.213644083839384 0.213644083839384 0.209618528379014 0.262588369554845 0.256167763836042 0.256167763836042 0.256167763836042 0.256167763836042 0.256167763836042 0.248955858943524 0.248955858943524 0.248955858943524 0.248955858943524 0.248955858943524 0.248955858943524 0.239725716254994 0.239725716254994 0.239725716254994 0.239725716254994 0.239725716254994 0.239725716254994 0.239725716254994 0.239725716254994 SCALARS TT/TT_inf float
LOOKUP_TABLE default