TITLE = "Visualization of the surface solution"
VARIABLES = "x""y""Density""X-Momentum""Y-Momentum""Energy""TKE""Omega""Limiter_Density""Limiter_X-Momentum""Limiter_Y-Momentum""Limiter_Energy""Limiter_TKE""Limiter_Omega""Residual_Density""Residual_X-Momentum""Residual_Y-Momentum""Residual_Energy""Residual_TKE""Residual_Omega""Grid_Velx""Grid_Vely""Pressure""Temperature""C<sub>p</sub>""Mach""Entropy""Total_Pressure""MachIs""SoundSpeed""<greek>m</greek>""C<sub>f</sub>_x""C<sub>f</sub>_y""h""y<sup>+</sup>""<greek>m</greek><sub>t</sub>""Sharp_Edge_Dist"
ZONE NODES= 324, ELEMENTS= 324, DATAPACKING=POINT, ZONETYPE=FELINESEG
3.085804e-01	-3.230213e-03	1.898105e+00	0.000000e+00	-5.650013e+02	2.721930e+06	1.000000e-10	3.245313e+07	0.000000e+00	0.000000e+00	0.000000e+00	0.000000e+00	0.000000e+00	0.000000e+00	-1.846613e-15	-0.000000e+00	-0.000000e+00	-2.922107e-09	-0.000000e+00	-0.000000e+00	0.000000e+00	-2.976660e+02	7.728870e+05	1.364848e+03	-7.187149e-01	4.102344e-01	7.159170e+03	8.605865e+05	7.538811e-01	7.255998e+02	4.983092e-05	-2.059130e-04	-4.370597e-04	-1.131357e+05	1.024960e+01	5.848757e-18	2.420223e-03	
3.089526e-01	-2.604522e-03	1.983098e+00	0.000000e+00	-5.903008e+02	2.800807e+06	1.000000e-10	3.128852e+07	0.000000e+00	0.000000e+00	0.000000e+00	0.000000e+00	0.000000e+00	0.000000e+00	-1.534363e-15	-0.000000e+00	-0.000000e+00	-2.216368e-09	-0.000000e+00	-0.000000e+00	0.000000e+00	-2.976660e+02	7.948945e+05	1.343550e+03	-6.703611e-01	4.134731e-01	7.130087e+03	8.865821e+05	7.221090e-01	7.199162e+02	4.938201e-05	-1.776613e-04	-2.412330e-04	-6.121409e+04	8.324935e+00	6.338100e-18	1.707890e-03	
3.492715e-01	5.209667e-03	1.910195e+00	0.000000e+00	-5.686000e+02	2.524623e+06	1.000000e-10	3.185312e+07	0.000000e+00	0.000000e+00	0.000000e+00	0.000000e+00	0.000000e+00	0.000000e+00	-1.014249e-14	-0.000000e+00	-0.000000e+00	-1.256429e-08	-0.000000e+00	-0.000000e+00	0.000000e+00	-2.976660e+02	7.149191e+05	1.254492e+03	-8.460788e-01	4.278981e-01	7.071426e+03	8.035036e+05	8.367385e-01	6.956470e+02	4.746144e-05	2.358893e-04	1.283148e-04	2.648938e+03	8.048316e+00	5.996884e-18	3.798175e-02	
3.095147e-01	-1.961682e-03	2.034814e+00	0.000000e+00	-6.056949e+02	2.834941e+06	1.000000e-10	3.061015e+07	0.000000e+00	0.000000e+00	0.000000e+00	0.000000e+00	0.000000e+00	0.000000e+00	-1.287165e-15	-0.000000e+00	-0.000000e+00	-1.794714e-09	-0.000000e+00	-0.000000e+00	0.000000e+00	-2.976660e+02	8.042246e+05	1.324772e+03	-6.498616e-01	4.163932e-01	7.108075e+03	8.983600e+05	7.085468e-01	7.148676e+02	4.898298e-05	-8.930039e-05	-8.939959e-05	-2.397691e+04	5.521187e+00	6.647514e-18	8.577560e-04	
3.476966e-01	4.400654e-03	1.913042e+00	0.000000e+00	-5.694474e+02	2.528051e+06	1.000000e-10	3.180571e+07	0.000000e+00	0.000000e+00	0.000000e+00	0.000000e+00	0.000000e+00	0.000000e+00	-9.222657e-15	-0.000000e+00	-0.000000e+00	-1.112724e-08	-0.000000e+00	-0.000000e+00	0.000000e+00	-2.976660e+02	7.158865e+05	1.254320e+03	-8.439532e-01	4.279274e-01	7.070843e+03	8.046036e+05	8.353594e-01	6.955993e+02	4.745767e-05	2.314397e-04	1.139490e-04	3.196666e+03	7.894985e+00	6.014774e-18	3.630284e-02	
3.101596e-01	-1.396191e-03	2.060283e+00	0.000000e+00	-6.132763e+02	2.833217e+06	1.000000e-10	3.018893e+07	0.000000e+00	0.000000e+00	0.000000e+00	0.000000e+00	0.000000e+00	0.000000e+00	-1.504005e-15	-0.000000e+00	-0.000000e+00	-2.115445e-09	-0.000000e+00	-0.000000e+00	0.000000e+00	-2.976660e+02	8.033888e+05	1.307035e+03	-6.516979e-01	4.192090e-01	7.090639e+03	8.987585e+05	7.097642e-01	7.100659e+02	4.860324e-05	2.984700e-05	1.878487e-05	-4.317737e+03	2.957938e+00	6.824632e-18	0.000000e+00	
3.109480e-01	-1.059579e-03	2.043010e+00	0.000000e+00	-6.081346e+02	2.783454e+06	1.000000e-10	3.034608e+07	0.000000e+00	0.000000e+00	0.000000e+00	0.000000e+00	0.000000e+00	0.000000e+00	-1.052327e-15	-0.000000e+00	-0.000000e+00	-1.528203e-09	-0.000000e+00	-0.000000e+00	0.000000e+00	-2.976660e+02	7.890324e+05	1.294532e+03	-6.832410e-01	4.212286e-01	7.083364e+03	8.836425e+05	7.305996e-01	7.066615e+02	4.833385e-05	1.560112e-04	5.787452e-05	3.291795e+03	6.433853e+00	6.732370e-18	8.572379e-04	
3.117682e-01	-7.994838e-04	2.004662e+00	0.000000e+00	-5.967197e+02	2.717675e+06	1.000000e-10	3.076029e+07	0.000000e+00	0.000000e+00	0.000000e+00	0.000000e+00	0.000000e+00	0.000000e+00	-9.178313e-16	-0.000000e+00	-0.000000e+00	-1.377063e-09	-0.000000e+00	-0.000000e+00	0.000000e+00	-2.976660e+02	7.702571e+05	1.287903e+03	-7.244931e-01	4.223113e-01	7.083789e+03	8.631125e+05	7.576608e-01	7.048498e+02	4.819044e-05	2.301983e-04	3.579345e-05	-2.419092e+03	7.563366e+00	6.517045e-18	0.000000e+00	
3.126276e-01	-7.984141e-04	1.966008e+00	0.000000e+00	-5.852138e+02	2.651131e+06	1.000000e-10	3.123737e+07	0.000000e+00	0.000000e+00	0.000000e+00	0.000000e+00	0.000000e+00	0.000000e+00	-3.218996e-16	-0.000000e+00	-0.000000e+00	-8.835488e-11	-0.000000e+00	-0.000000e+00	0.000000e+00	-2.976660e+02	7.512612e+05	1.280838e+03	-7.662298e-01	4.234744e-01	7.083997e+03	8.423485e+05	7.848832e-01	7.029139e+02	4.803716e-05	2.572087e-04	-9.622268e-06	-3.972626e+03	7.898063e+00	6.293769e-18	8.594834e-04	
3.134890e-01	-8.638602e-04	1.952780e+00	0.000000e+00	-5.812762e+02	2.634770e+06	1.000000e-10	3.139467e+07	0.000000e+00	0.000000e+00	0.000000e+00	0.000000e+00	0.000000e+00	0.000000e+00	-6.314936e-16	-0.000000e+00	-0.000000e+00	-7.920899e-10	-0.000000e+00	-0.000000e+00	0.000000e+00	-2.976660e+02	7.466393e+05	1.281581e+03	-7.763850e-01	4.233516e-01	7.086602e+03	8.371113e+05	7.914899e-01	7.031177e+02	4.805330e-05	2.393539e-04	-1.767008e-05	-9.679374e+03	7.598439e+00	6.220101e-18	1.722022e-03	
3.143517e-01	-9.256926e-04	1.949080e+00	0.000000e+00	-5.801748e+02	2.629595e+06	1.000000e-10	3.144453e+07	0.000000e+00	0.000000e+00	0.000000e+00	0.000000e+00	0.000000e+00	0.000000e+00	-5.999975e-16	-0.000000e+00	-0.000000e+00	-9.553800e-10	-0.000000e+00	-0.000000e+00	0.000000e+00	-2.976660e+02	7.451710e+05	1.281489e+03	-7.796108e-01	4.233668e-01	7.087094e+03	8.354720e+05	7.935874e-01	7.030924e+02	4.805130e-05	2.255499e-04	-1.587709e-05	-1.057147e+04	7.368486e+00	6.198470e-18	2.586642e-03	
3.152157e-01	-9.854075e-04	1.946282e+00	0.000000e+00	-5.793420e+02	2.623444e+06	1.000000e-10	3.148185e+07	0.000000e+00	0.000000e+00	0.000000e+00	0.000000e+00	0.000000e+00	0.000000e+00	-7.631157e-16	-0.000000e+00	-0.000000e+00	-1.175183e-09	-0.000000e+00	-0.000000e+00	0.000000e+00	-2.976660e+02	7.434051e+05	1.280290e+03	-7.834909e-01	4.235650e-01	7.086570e+03	8.335802e+05	7.961097e-01	7.027634e+02	4.802525e-05	2.174110e-04	-1.479489e-05	-9.800670e+03	7.232464e+00	6.182236e-18	3.452528e-03	
3.469004e-01	4.013196e-03	1.918112e+00	0.000000e+00	-5.709567e+02	2.536517e+06	1.000000e-10	3.173561e+07	0.000000e+00	0.000000e+00	0.000000e+00	0.000000e+00	0.000000e+00	0.000000e+00	-8.664076e-15	-0.000000e+00	-0.000000e+00	-1.082177e-08	-0.000000e+00	-0.000000e+00	0.000000e+00	-2.976660e+02	7.183010e+05	1.255223e+03	-8.386482e-01	4.277733e-01	7.070786e+03	8.072503e+05	8.319176e-01	6.958498e+02	4.747752e-05	2.299735e-04	1.126805e-04	3.253009e+03	7.873362e+00	6.044038e-18	3.546038e-02	
3.160808e-01	-1.043356e-03	1.944173e+00	0.000000e+00	-5.787142e+02	2.618694e+06	1.000000e-10	3.150582e+07	0.000000e+00	0.000000e+00	0.000000e+00	0.000000e+00	0.000000e+00	0.000000e+00	-8.524540e-16	-0.000000e+00	-0.000000e+00	-1.088591e-09	-0.000000e+00	-0.000000e+00	0.000000e+00	-2.976660e+02	7.420408e+05	1.279326e+03	-7.864884e-01	4.237245e-01	7.086127e+03	8.321212e+05	7.980579e-01	7.024990e+02	4.800431e-05	2.117306e-04	-1.323365e-05	-9.509096e+03	7.135312e+00	6.170839e-18	4.319522e-03	
3.461063e-01	3.621450e-03	1.923556e+00	0.000000e+00	-5.725772e+02	2.546880e+06	1.000000e-10	3.165801e+07	0.000000e+00	0.000000e+00	0.000000e+00	0.000000e+00	0.000000e+00	0.000000e+00	-7.906436e-15	-0.000000e+00	-0.000000e+00	-9.654274e-09	-0.000000e+00	-0.000000e+00	0.000000e+00	-2.976660e+02	7.212668e+05	1.256839e+03	-8.321320e-01	4.274983e-01	7.071250e+03	8.104633e+05	8.276900e-01	6.962975e+02	4.751300e-05	2.236679e-04	1.086016e-04	2.245596e+03	7.763109e+00	6.076048e-18	3.462158e-02	
3.453074e-01	3.239690e-03	1.925701e+00	0.000000e+00	-5.732157e+02	2.551033e+06	1.000000e-10	3.162419e+07	0.000000e+00	0.000000e+00	0.000000e+00	0.000000e+00	0.000000e+00	0.000000e+00	-7.557323e-15	-0.000000e+00	-0.000000e+00	-9.165984e-09	-0.000000e+00	-0.000000e+00	0.000000e+00	-2.976660e+02	7.224559e+05	1.257509e+03	-8.295194e-01	4.273845e-01	7.071460e+03	8.117497e+05	8.259949e-01	6.964830e+02	4.752770e-05	2.169356e-04	9.992128e-05	1.627119e+03	7.610501e+00	6.089330e-18	3.378157e-02	
3.444980e-01	2.880663e-03	1.926377e+00	0.000000e+00	-5.734169e+02	2.551323e+06	1.000000e-10	3.161444e+07	0.000000e+00	0.000000e+00	0.000000e+00	0.000000e+00	0.000000e+00	0.000000e+00	-7.404233e-15	-0.000000e+00	-0.000000e+00	-9.309847e-09	-0.000000e+00	-0.000000e+00	0.000000e+00	-2.976660e+02	7.225321e+05	1.257200e+03	-8.293518e-01	4.274369e-01	7.071106e+03	8.118583e+05	8.258862e-01	6.963975e+02	4.752093e-05	2.145320e-04	9.247660e-05	2.285554e+03	7.529159e+00	6.093345e-18	3.293611e-02	
3.169474e-01	-1.093644e-03	1.942256e+00	0.000000e+00	-5.781436e+02	2.614303e+06	1.000000e-10	3.152666e+07	0.000000e+00	0.000000e+00	0.000000e+00	0.000000e+00	0.000000e+00	0.000000e+00	-6.991478e-16	-0.000000e+00	-0.000000e+00	-1.167018e-09	-0.000000e+00	-0.000000e+00	0.000000e+00	-2.976660e+02	7.407789e+05	1.278411e+03	-7.892610e-01	4.238761e-01	7.085692e+03	8.307734e+05	7.998596e-01	7.022477e+02	4.798441e-05	2.077014e-04	-1.180755e-05	-9.265384e+03	7.065351e+00	6.160679e-18	5.187579e-03	
3.436813e-01	2.538755e-03	1.929648e+00	0.000000e+00	-5.743906e+02	2.557019e+06	1.000000e-10	3.157173e+07	0.000000e+00	0.000000e+00	0.000000e+00	0.000000e+00	0.000000e+00	0.000000e+00	-6.707742e-15	-0.000000e+00	-0.000000e+00	-8.167756e-09	-0.000000e+00	-0.000000e+00	0.000000e+00	-2.976660e+02	7.241584e+05	1.257894e+03	-8.257786e-01	4.273190e-01	7.071161e+03	8.136341e+05	8.235677e-01	6.965896e+02	4.753616e-05	2.128614e-04	8.956233e-05	2.377314e+03	7.489819e+00	6.111949e-18	3.208728e-02	
3.178151e-01	-1.141949e-03	1.940427e+00	0.000000e+00	-5.775991e+02	2.609660e+06	1.000000e-10	3.154693e+07	0.000000e+00	0.000000e+00	0.000000e+00	0.000000e+00	0.000000e+00	0.000000e+00	-7.149229e-16	-0.000000e+00	-0.000000e+00	-1.186239e-09	-0.000000e+00	-0.000000e+00	0.000000e+00	-2.976660e+02	7.394424e+05	1.277308e+03	-7.921975e-01	4.240591e-01	7.085094e+03	8.293556e+05	8.017674e-01	7.019445e+02	4.796040e-05	2.038045e-04	-1.098227e-05	-8.683861e+03	6.998390e+00	6.150921e-18	6.056620e-03	
3.428659e-01	2.193951e-03	1.933910e+00	0.000000e+00	-5.756593e+02	2.566012e+06	1.000000e-10	3.151299e+07	0.000000e+00	0.000000e+00	0.000000e+00	0.000000e+00	0.000000e+00	0.000000e+00	-6.188192e-15	-0.000000e+00	-0.000000e+00	-7.703264e-09	-0.000000e+00	-0.000000e+00	0.000000e+00	-2.976660e+02	7.267381e+05	1.259593e+03	-8.201107e-01	4.270308e-01	7.071877e+03	8.164058e+05	8.198898e-01	6.970598e+02	4.757342e-05	2.068749e-04	8.571498e-05	1.136367e+03	7.377679e+00	6.136867e-18	3.124150e-02	
3.420457e-01	1.861087e-03	1.935048e+00	0.000000e+00	-5.759979e+02	2.568795e+06	1.000000e-10	3.149534e+07	0.000000e+00	0.000000e+00	0.000000e+00	0.000000e+00	0.000000e+00	0.000000e+00	-5.736297e-15	-0.000000e+00	-0.000000e+00	-7.200587e-09	-0.000000e+00	-0.000000e+00	0.000000e+00	-2.976660e+02	7.275387e+05	1.260239e+03	-8.183516e-01	4.269212e-01	7.072224e+03	8.172571e+05	8.187482e-01	6.972387e+02	4.758760e-05	2.000929e-04	7.734853e-05	4.773595e+02	7.221032e+00	6.143918e-18	3.039426e-02	
3.186839e-01	-1.187218e-03	1.939444e+00	0.000000e+00	-5.773065e+02	2.607014e+06	1.000000e-10	3.155462e+07	0.000000e+00	0.000000e+00	0.000000e+00	0.000000e+00	0.000000e+00	0.000000e+00	-9.580552e-16	-0.000000e+00	-0.000000e+00	-1.606987e-09	-0.000000e+00	-0.000000e+00	0.000000e+00	-2.976660e+02	7.386800e+05	1.276638e+03	-7.938726e-01	4.241705e-01	7.084711e+03	8.285497e+05	8.028556e-01	7.017603e+02	4.794581e-05	2.003714e-04	-9.097502e-06	-8.577414e+03	6.938091e+00	6.146308e-18	6.926604e-03	
3.412151e-01	1.555801e-03	1.934650e+00	0.000000e+00	-5.758796e+02	2.567473e+06	1.000000e-10	3.150253e+07	0.000000e+00	0.000000e+00	0.000000e+00	0.000000e+00	0.000000e+00	0.000000e+00	-5.133914e-15	-0.000000e+00	-0.000000e+00	-6.546319e-09	-0.000000e+00	-0.000000e+00	0.000000e+00	-2.976660e+02	7.271565e+05	1.259836e+03	-8.191915e-01	4.269896e-01	7.071959e+03	8.168577e+05	8.192933e-01	6.971271e+02	4.757875e-05	1.979554e-04	6.999429e-05	1.192588e+03	7.144516e+00	6.141253e-18	2.954098e-02	
3.403773e-01	1.271143e-03	1.936905e+00	0.000000e+00	-5.765508e+02	2.571918e+06	1.000000e-10	3.147603e+07	0.000000e+00	0.000000e+00	0.000000e+00	0.000000e+00	0.000000e+00	0.000000e+00	-4.405330e-15	-0.000000e+00	-0.000000e+00	-5.807472e-09	-0.000000e+00	-0.000000e+00	0.000000e+00	-2.976660e+02	7.284298e+05	1.260573e+03	-8.163939e-01	4.268648e-01	7.072207e+03	8.182332e+05	8.174777e-01	6.973309e+02	4.759491e-05	1.969966e-04	6.741952e-05	1.151745e+03	7.116382e+00	6.153587e-18	2.868396e-02	
3.395409e-01	9.828459e-04	1.940280e+00	0.000000e+00	-5.775555e+02	2.579929e+06	1.000000e-10	3.143180e+07	0.000000e+00	0.000000e+00	0.000000e+00	0.000000e+00	0.000000e+00	0.000000e+00	-4.023691e-15	-0.000000e+00	-0.000000e+00	-5.241381e-09	-0.000000e+00	-0.000000e+00	0.000000e+00	-2.976660e+02	7.307331e+05	1.262359e+03	-8.113332e-01	4.265627e-01	7.073130e+03	8.206872e+05	8.141931e-01	6.978248e+02	4.763404e-05	1.913696e-04	6.420084e-05	-2.531009e+02	7.007151e+00	6.172985e-18	2.782992e-02	
3.387002e-01	7.085158e-04	1.940477e+00	0.000000e+00	-5.776141e+02	2.581481e+06	1.000000e-10	3.142900e+07	0.000000e+00	0.000000e+00	0.000000e+00	0.000000e+00	0.000000e+00	0.000000e+00	-3.345414e-15	-0.000000e+00	-0.000000e+00	-4.048077e-09	-0.000000e+00	-0.000000e+00	0.000000e+00	-2.976660e+02	7.311854e+05	1.263012e+03	-8.103393e-01	4.264523e-01	7.073626e+03	8.211466e+05	8.135480e-01	6.980053e+02	4.764835e-05	1.843064e-04	5.624890e-05	-9.820440e+02	6.844733e+00	6.174161e-18	2.697424e-02	
3.378498e-01	4.667364e-04	1.938709e+00	0.000000e+00	-5.770878e+02	2.578091e+06	1.000000e-10	3.145634e+07	0.000000e+00	0.000000e+00	0.000000e+00	0.000000e+00	0.000000e+00	0.000000e+00	-2.907830e-15	-0.000000e+00	-0.000000e+00	-3.600061e-09	-0.000000e+00	-0.000000e+00	0.000000e+00	-2.976660e+02	7.302150e+05	1.262486e+03	-8.124714e-01	4.265411e-01	7.073474e+03	8.200959e+05	8.149319e-01	6.978600e+02	4.763683e-05	1.824029e-04	4.877816e-05	-2.883742e+02	6.773909e+00	6.163174e-18	2.611241e-02	
3.195542e-01	-1.220909e-03	1.938532e+00	0.000000e+00	-5.770350e+02	2.604356e+06	1.000000e-10	3.156205e+07	0.000000e+00	0.000000e+00	0.000000e+00	0.000000e+00	0.000000e+00	0.000000e+00	-8.058875e-16	-0.000000e+00	-0.000000e+00	-1.099962e-09	-0.000000e+00	-0.000000e+00	0.000000e+00	-2.976660e+02	7.379128e+05	1.275912e+03	-7.955583e-01	4.242911e-01	7.084272e+03	8.277426e+05	8.039505e-01	7.015608e+02	4.793001e-05	1.980885e-04	-7.203069e-06	-8.317063e+03	6.897832e+00	6.141969e-18	7.797402e-03	
3.369925e-01	2.518513e-04	1.939406e+00	0.000000e+00	-5.772951e+02	2.580098e+06	1.000000e-10	3.145275e+07	0.000000e+00	0.000000e+00	0.000000e+00	0.000000e+00	0.000000e+00	0.000000e+00	-2.683617e-15	-0.000000e+00	-0.000000e+00	-3.617737e-09	-0.000000e+00	-0.000000e+00	0.000000e+00	-2.976660e+02	7.307941e+05	1.263033e+03	-8.111991e-01	4.264487e-01	7.073808e+03	8.207055e+05	8.141061e-01	6.980113e+02	4.764882e-05	1.833138e-04	4.635008e-05	-2.996629e+02	6.778268e+00	6.166093e-18	2.524628e-02	
3.361364e-01	3.350940e-05	1.941903e+00	0.000000e+00	-5.780384e+02	2.586996e+06	1.000000e-10	3.142216e+07	0.000000e+00	0.000000e+00	0.000000e+00	0.000000e+00	0.000000e+00	0.000000e+00	-2.223265e-15	-0.000000e+00	-0.000000e+00	-2.824047e-09	-0.000000e+00	-0.000000e+00	0.000000e+00	-2.976660e+02	7.327827e+05	1.264842e+03	-8.068298e-01	4.261437e-01	7.074881e+03	8.228041e+05	8.112698e-01	6.985108e+02	4.768840e-05	1.798741e-04	4.457010e-05	-1.816039e+03	6.709118e+00	6.180042e-18	2.438252e-02	
3.352778e-01	-1.730286e-04	1.941641e+00	0.000000e+00	-5.779606e+02	2.587930e+06	1.000000e-10	3.142787e+07	0.000000e+00	0.000000e+00	0.000000e+00	0.000000e+00	0.000000e+00	0.000000e+00	-1.904510e-15	-0.000000e+00	-0.000000e+00	-2.511392e-09	-0.000000e+00	-0.000000e+00	0.000000e+00	-2.976660e+02	7.330597e+05	1.265491e+03	-8.062211e-01	4.260345e-01	7.075443e+03	8.230669e+05	8.108746e-01	6.986899e+02	4.770259e-05	1.739162e-04	3.819601e-05	-2.475486e+03	6.574121e+00	6.178087e-18	2.351802e-02	
3.344121e-01	-3.452022e-04	1.939092e+00	0.000000e+00	-5.772018e+02	2.583675e+06	1.000000e-10	3.146659e+07	0.000000e+00	0.000000e+00	0.000000e+00	0.000000e+00	0.000000e+00	0.000000e+00	-1.430713e-15	-0.000000e+00	-0.000000e+00	-2.021340e-09	-0.000000e+00	-0.000000e+00	0.000000e+00	-2.976660e+02	7.318460e+05	1.265056e+03	-8.088879e-01	4.261077e-01	7.075486e+03	8.217364e+05	8.126058e-01	6.985699e+02	4.769308e-05	1.726045e-04	3.146984e-05	-2.021489e+03	6.522754e+00	6.162384e-18	2.264847e-02	
3.335416e-01	-4.895788e-04	1.938167e+00	0.000000e+00	-5.769264e+02	2.582788e+06	1.000000e-10	3.148561e+07	0.000000e+00	0.000000e+00	0.000000e+00	0.000000e+00	0.000000e+00	0.000000e+00	-1.122583e-15	-0.000000e+00	-0.000000e+00	-1.501417e-09	-0.000000e+00	-0.000000e+00	0.000000e+00	-2.976660e+02	7.315983e+05	1.265232e+03	-8.094321e-01	4.260781e-01	7.075769e+03	8.214452e+05	8.129591e-01	6.986184e+02	4.769692e-05	1.758250e-04	2.887514e-05	-1.859854e+03	6.571215e+00	6.155724e-18	2.177568e-02	
3.326712e-01	-6.311072e-04	1.939849e+00	0.000000e+00	-5.774270e+02	2.587986e+06	1.000000e-10	3.146748e+07	0.000000e+00	0.000000e+00	0.000000e+00	0.000000e+00	0.000000e+00	0.000000e+00	-1.463673e-15	-0.000000e+00	-0.000000e+00	-2.000644e-09	-0.000000e+00	-0.000000e+00	0.000000e+00	-2.976660e+02	7.330995e+05	1.266729e+03	-8.061338e-01	4.258263e-01	7.076715e+03	8.230196e+05	8.108179e-01	6.990316e+02	4.772966e-05	1.766306e-04	2.864437e-05	-3.046361e+03	6.583513e+00	6.164614e-18	2.090368e-02	
3.318010e-01	-7.718520e-04	1.940415e+00	0.000000e+00	-5.775956e+02	2.590750e+06	1.000000e-10	3.146337e+07	0.000000e+00	0.000000e+00	0.000000e+00	0.000000e+00	0.000000e+00	0.000000e+00	-1.310692e-15	-0.000000e+00	-0.000000e+00	-1.737888e-09	-0.000000e+00	-0.000000e+00	0.000000e+00	-2.976660e+02	7.339018e+05	1.267745e+03	-8.043710e-01	4.256555e-01	7.077444e+03	8.238449e+05	8.096734e-01	6.993119e+02	4.775187e-05	1.732599e-04	2.533534e-05	-3.923651e+03	6.510490e+00	6.167219e-18	2.003290e-02	
3.204255e-01	-1.250547e-03	1.937408e+00	0.000000e+00	-5.767004e+02	2.601315e+06	1.000000e-10	3.157250e+07	0.000000e+00	0.000000e+00	0.000000e+00	0.000000e+00	0.000000e+00	0.000000e+00	-8.256200e-16	-0.000000e+00	-0.000000e+00	-1.322014e-09	-0.000000e+00	-0.000000e+00	0.000000e+00	-2.976660e+02	7.370366e+05	1.275136e+03	-7.974835e-01	4.244201e-01	7.083826e+03	8.268167e+05	8.052009e-01	7.013475e+02	4.791312e-05	1.959919e-04	-5.735780e-06	-8.011259e+03	6.860863e+00	6.136378e-18	8.669062e-03	
3.309276e-01	-8.860647e-04	1.938290e+00	0.000000e+00	-5.769631e+02	2.587679e+06	1.000000e-10	3.149634e+07	0.000000e+00	0.000000e+00	0.000000e+00	0.000000e+00	0.000000e+00	0.000000e+00	-1.330533e-15	-0.000000e+00	-0.000000e+00	-2.136981e-09	-0.000000e+00	-0.000000e+00	0.000000e+00	-2.976660e+02	7.330297e+05	1.267626e+03	-8.062872e-01	4.256754e-01	7.077676e+03	8.228746e+05	8.109175e-01	6.992792e+02	4.774928e-05	1.717811e-04	1.970863e-05	-3.813677e+03	6.466372e+00	6.154018e-18	1.915962e-02	
3.300515e-01	-9.725823e-04	1.936087e+00	0.000000e+00	-5.763073e+02	2.584360e+06	1.000000e-10	3.153173e+07	0.000000e+00	0.000000e+00	0.000000e+00	0.000000e+00	0.000000e+00	0.000000e+00	-1.134834e-15	-0.000000e+00	-0.000000e+00	-1.968860e-09	-0.000000e+00	-0.000000e+00	0.000000e+00	-2.976660e+02	7.320859e+05	1.267435e+03	-8.083607e-01	4.257076e-01	7.077861e+03	8.218293e+05	8.122636e-01	6.992265e+02	4.774510e-05	1.758951e-04	1.616092e-05	-3.527733e+03	6.532566e+00	6.140122e-18	1.828413e-02	
3.291748e-01	-1.047109e-03	1.936618e+00	0.000000e+00	-5.764652e+02	2.586434e+06	1.000000e-10	3.152983e+07	0.000000e+00	0.000000e+00	0.000000e+00	0.000000e+00	0.000000e+00	0.000000e+00	-8.643260e-16	-0.000000e+00	-0.000000e+00	-1.279934e-09	-0.000000e+00	-0.000000e+00	0.000000e+00	-2.976660e+02	7.326866e+05	1.268127e+03	-8.070410e-01	4.255913e-01	7.078336e+03	8.224524e+05	8.114069e-01	6.994174e+02	4.776023e-05	1.817936e-04	1.621669e-05	-3.855742e+03	6.639203e+00	6.142176e-18	1.740839e-02	
3.282993e-01	-1.128879e-03	1.939316e+00	0.000000e+00	-5.772684e+02	2.592704e+06	1.000000e-10	3.149785e+07	0.000000e+00	0.000000e+00	0.000000e+00	0.000000e+00	0.000000e+00	0.000000e+00	-1.043219e-15	-0.000000e+00	-0.000000e+00	-1.662318e-09	-0.000000e+00	-0.000000e+00	0.000000e+00	-2.976660e+02	7.344886e+05	1.269478e+03	-8.030817e-01	4.253649e-01	7.079004e+03	8.243752e+05	8.088363e-01	6.997897e+02	4.778972e-05	1.833933e-04	1.709321e-05	-4.643101e+03	6.670082e+00	6.156977e-18	1.653446e-02	
3.274245e-01	-1.210247e-03	1.941295e+00	0.000000e+00	-5.778576e+02	2.597394e+06	1.000000e-10	3.147607e+07	0.000000e+00	0.000000e+00	0.000000e+00	0.000000e+00	0.000000e+00	0.000000e+00	-9.185361e-16	-0.000000e+00	-0.000000e+00	-1.441971e-09	-0.000000e+00	-0.000000e+00	0.000000e+00	-2.976660e+02	7.358371e+05	1.270511e+03	-8.001189e-01	4.251918e-01	7.079529e+03	8.258121e+05	8.069125e-01	7.000746e+02	4.781229e-05	1.797449e-04	1.516054e-05	-5.111480e+03	6.601078e+00	6.167526e-18	1.566170e-02	
3.265490e-01	-1.276510e-03	1.941137e+00	0.000000e+00	-5.778105e+02	2.598226e+06	1.000000e-10	3.148373e+07	0.000000e+00	0.000000e+00	0.000000e+00	0.000000e+00	0.000000e+00	0.000000e+00	-8.699638e-16	-0.000000e+00	-0.000000e+00	-9.870855e-10	-0.000000e+00	-0.000000e+00	0.000000e+00	-2.976660e+02	7.360831e+05	1.271040e+03	-7.995784e-01	4.251035e-01	7.079976e+03	8.260491e+05	8.065615e-01	7.002201e+02	4.782382e-05	1.747335e-04	1.056556e-05	-5.307894e+03	6.500980e+00	6.165525e-18	1.478854e-02	
3.212979e-01	-1.271940e-03	1.936127e+00	0.000000e+00	-5.763191e+02	2.598167e+06	1.000000e-10	3.158498e+07	0.000000e+00	0.000000e+00	0.000000e+00	0.000000e+00	0.000000e+00	0.000000e+00	-1.224037e-15	-0.000000e+00	-0.000000e+00	-1.836664e-09	-0.000000e+00	-0.000000e+00	0.000000e+00	-2.976660e+02	7.361307e+05	1.274411e+03	-7.994738e-01	4.245408e-01	7.083444e+03	8.258538e+05	8.064935e-01	7.011482e+02	4.789733e-05	1.932776e-04	-4.712305e-06	-7.798346e+03	6.812735e+00	6.129898e-18	9.541446e-03	
3.221712e-01	-1.293108e-03	1.934836e+00	0.000000e+00	-5.759350e+02	2.594535e+06	1.000000e-10	3.159836e+07	0.000000e+00	0.000000e+00	0.000000e+00	0.000000e+00	0.000000e+00	0.000000e+00	-1.143535e-15	-0.000000e+00	-0.000000e+00	-1.323111e-09	-0.000000e+00	-0.000000e+00	0.000000e+00	-2.976660e+02	7.350834e+05	1.273447e+03	-8.017749e-01	4.247015e-01	7.082873e+03	8.247497e+05	8.079878e-01	7.008828e+02	4.787631e-05	1.887314e-04	-4.551705e-06	-7.187391e+03	6.732825e+00	6.123217e-18	1.041472e-02	
3.230453e-01	-1.314082e-03	1.934624e+00	0.000000e+00	-5.758717e+02	2.592858e+06	1.000000e-10	3.159617e+07	0.000000e+00	0.000000e+00	0.000000e+00	0.000000e+00	0.000000e+00	0.000000e+00	-9.048480e-16	-0.000000e+00	-0.000000e+00	-1.175216e-09	-0.000000e+00	-0.000000e+00	0.000000e+00	-2.976660e+02	7.345946e+05	1.272740e+03	-8.028488e-01	4.248194e-01	7.082340e+03	8.242533e+05	8.086851e-01	7.006883e+02	4.786090e-05	1.826078e-04	-3.737609e-06	-6.750158e+03	6.624194e+00	6.122968e-18	1.128885e-02	
3.239203e-01	-1.328909e-03	1.935598e+00	0.000000e+00	-5.761617e+02	2.593122e+06	1.000000e-10	3.157736e+07	0.000000e+00	0.000000e+00	0.000000e+00	0.000000e+00	0.000000e+00	0.000000e+00	-1.059637e-15	-0.000000e+00	-0.000000e+00	-1.789819e-09	-0.000000e+00	-0.000000e+00	0.000000e+00	-2.976660e+02	7.346594e+05	1.272212e+03	-8.027065e-01	4.249077e-01	7.081767e+03	8.243649e+05	8.085927e-01	7.005428e+02	4.784938e-05	1.768980e-04	-1.771424e-06	-6.334160e+03	6.522502e+00	6.129701e-18	1.216364e-02	
3.247961e-01	-1.331615e-03	1.937324e+00	0.000000e+00	-5.766756e+02	2.594483e+06	1.000000e-10	3.154795e+07	0.000000e+00	0.000000e+00	0.000000e+00	0.000000e+00	0.000000e+00	0.000000e+00	-8.435720e-16	-0.000000e+00	-0.000000e+00	-9.620040e-10	-0.000000e+00	-0.000000e+00	0.000000e+00	-2.976660e+02	7.350359e+05	1.271729e+03	-8.018792e-01	4.249882e-01	7.081115e+03	8.248230e+05	8.080555e-01	7.004100e+02	4.783886e-05	1.730910e-04	1.257704e-06	-5.861726e+03	6.456154e+00	6.140888e-18	1.303885e-02	
3.256726e-01	-1.316176e-03	1.939401e+00	0.000000e+00	-5.772937e+02	2.596467e+06	1.000000e-10	3.151348e+07	0.000000e+00	0.000000e+00	0.000000e+00	0.000000e+00	0.000000e+00	0.000000e+00	-8.860371e-16	-0.000000e+00	-0.000000e+00	-1.299563e-09	-0.000000e+00	-0.000000e+00	0.000000e+00	-2.976660e+02	7.355901e+05	1.271326e+03	-8.006615e-01	4.250557e-01	7.080472e+03	8.254747e+05	8.072648e-01	7.002988e+02	4.783005e-05	1.721528e-04	5.411935e-06	-5.464308e+03	6.444776e+00	6.154194e-18	1.391405e-02	
3.083361e-01	-3.913094e-03	1.787264e+00	0.000000e+00	-5.320078e+02	2.596881e+06	1.000000e-10	3.417328e+07	0.000000e+00	0.000000e+00	0.000000e+00	0.000000e+00	0.000000e+00	0.000000e+00	-1.551710e-15	-0.000000e+00	-0.000000e+00	-2.333458e-09	-0.000000e+00	-0.000000e+00	0.000000e+00	-2.976660e+02	7.376862e+05	1.383475e+03	-7.960560e-01	4.074633e-01	7.190924e+03	8.202179e+05	8.042738e-01	7.305345e+02	5.022041e-05	-1.599776e-04	-6.381273e-04	-1.660734e+05	1.151586e+01	5.230005e-18	3.108047e-03	
3.484891e-01	4.795396e-03	1.911298e+00	0.000000e+00	-5.689285e+02	2.526275e+06	1.000000e-10	3.183145e+07	0.000000e+00	0.000000e+00	0.000000e+00	0.000000e+00	0.000000e+00	0.000000e+00	-9.836749e-15	-0.000000e+00	-0.000000e+00	-1.187238e-08	-0.000000e+00	-0.000000e+00	0.000000e+00	-2.976660e+02	7.153887e+05	1.254591e+03	-8.450471e-01	4.278812e-01	7.071334e+03	8.040240e+05	8.360691e-01	6.956744e+02	4.746362e-05	2.314919e-04	1.189147e-04	2.433729e+03	7.925158e+00	6.004434e-18	3.714477e-02	
3.500443e-01	5.641354e-03	1.906681e+00	0.000000e+00	-5.675541e+02	2.517551e+06	1.000000e-10	3.190961e+07	0.000000e+00	0.000000e+00	0.000000e+00	0.000000e+00	0.000000e+00	0.000000e+00	-8.836248e-15	-0.000000e+00	-0.000000e+00	-1.081281e-08	-0.000000e+00	-0.000000e+00	0.000000e+00	-2.976660e+02	7.128925e+05	1.253241e+03	-8.505315e-01	4.281116e-01	7.070960e+03	8.013181e+05	8.396274e-01	6.953000e+02	4.743395e-05	2.438592e-04	1.379752e-04	3.885093e+03	8.218337e+00	5.975258e-18	3.881429e-02	
3.505637e-01	5.940783e-03	1.902044e+00	0.000000e+00	-5.661737e+02	2.509204e+06	1.000000e-10	3.197842e+07	0.000000e+00	0.000000e+00	0.000000e+00	0.000000e+00	0.000000e+00	0.000000e+00	-7.237266e-15	-0.000000e+00	-0.000000e+00	-8.906580e-09	-0.000000e+00	-0.000000e+00	0.000000e+00	-2.976660e+02	7.105071e+05	1.252093e+03	-8.557725e-01	4.283078e-01	7.070753e+03	7.987214e+05	8.430279e-01	6.949815e+02	4.740869e-05	2.512000e-04	1.455530e-04	4.487892e+03	8.359939e+00	5.947898e-18	3.937673e-02	
3.510818e-01	6.242514e-03	1.896575e+00	0.000000e+00	-5.645460e+02	2.500353e+06	1.000000e-10	3.205677e+07	0.000000e+00	0.000000e+00	0.000000e+00	0.000000e+00	0.000000e+00	0.000000e+00	-7.218618e-15	-0.000000e+00	-0.000000e+00	-8.881909e-09	-0.000000e+00	-0.000000e+00	0.000000e+00	-2.976660e+02	7.079847e+05	1.251245e+03	-8.613146e-01	4.284529e-01	7.070922e+03	7.959481e+05	8.466241e-01	6.947461e+02	4.739004e-05	2.565472e-04	1.490885e-04	4.403086e+03	8.442740e+00	5.916303e-18	3.993938e-02	
3.516005e-01	6.543308e-03	1.891046e+00	0.000000e+00	-5.629001e+02	2.491723e+06	1.000000e-10	3.213692e+07	0.000000e+00	0.000000e+00	0.000000e+00	0.000000e+00	0.000000e+00	0.000000e+00	-7.484898e-15	-0.000000e+00	-0.000000e+00	-9.127742e-09	-0.000000e+00	-0.000000e+00	0.000000e+00	-2.976660e+02	7.055277e+05	1.250548e+03	-8.667130e-01	4.285722e-01	7.071226e+03	7.932369e+05	8.501274e-01	6.945528e+02	4.737471e-05	2.589307e-04	1.495075e-04	4.169502e+03	8.465383e+00	5.884340e-18	4.050351e-02	
3.521204e-01	6.842176e-03	1.886733e+00	0.000000e+00	-5.616164e+02	2.485635e+06	1.000000e-10	3.220036e+07	0.000000e+00	0.000000e+00	0.000000e+00	0.000000e+00	0.000000e+00	0.000000e+00	-7.663575e-15	-0.000000e+00	-0.000000e+00	-9.250247e-09	-0.000000e+00	-0.000000e+00	0.000000e+00	-2.976660e+02	7.038001e+05	1.250338e+03	-8.705088e-01	4.286083e-01	7.071736e+03	7.913099e+05	8.525911e-01	6.944943e+02	4.737007e-05	2.583739e-04	1.490170e-04	3.577358e+03	8.446258e+00	5.859354e-18	4.106941e-02	
3.526394e-01	7.142492e-03	1.884256e+00	0.000000e+00	-5.608790e+02	2.482709e+06	1.000000e-10	3.223958e+07	0.000000e+00	0.000000e+00	0.000000e+00	0.000000e+00	0.000000e+00	0.000000e+00	-7.911206e-15	-0.000000e+00	-0.000000e+00	-9.446531e-09	-0.000000e+00	-0.000000e+00	0.000000e+00	-2.976660e+02	7.029749e+05	1.250514e+03	-8.723219e-01	4.285781e-01	7.072271e+03	7.903692e+05	8.537680e-01	6.945431e+02	4.737394e-05	2.571055e-04	1.504974e-04	2.985923e+03	8.435026e+00	5.844543e-18	4.163575e-02	
3.531554e-01	7.448047e-03	1.882705e+00	0.000000e+00	-5.604174e+02	2.480752e+06	1.000000e-10	3.226823e+07	0.000000e+00	0.000000e+00	0.000000e+00	0.000000e+00	0.000000e+00	0.000000e+00	-8.054321e-15	-0.000000e+00	-0.000000e+00	-9.595439e-09	-0.000000e+00	-0.000000e+00	0.000000e+00	-2.976660e+02	7.024215e+05	1.250558e+03	-8.735377e-01	4.285705e-01	7.072553e+03	7.897438e+05	8.545572e-01	6.945556e+02	4.737493e-05	2.577948e-04	1.549842e-04	2.944236e+03	8.472066e+00	5.834548e-18	4.220104e-02	
3.536673e-01	7.760462e-03	1.880693e+00	0.000000e+00	-5.598184e+02	2.477395e+06	1.000000e-10	3.230471e+07	0.000000e+00	0.000000e+00	0.000000e+00	0.000000e+00	0.000000e+00	0.000000e+00	-8.112001e-15	-0.000000e+00	-0.000000e+00	-9.992103e-09	-0.000000e+00	-0.000000e+00	0.000000e+00	-2.976660e+02	7.014642e+05	1.250190e+03	-8.756411e-01	4.286336e-01	7.072573e+03	7.886943e+05	8.559227e-01	6.944533e+02	4.736682e-05	2.612060e-04	1.614478e-04	3.415990e+03	8.556897e+00	5.821731e-18	4.276463e-02	