# vtk DataFile Version 3.0
vtk output
ASCII
DATASET UNSTRUCTURED_GRID
POINTS 266 float
1.958145e-01	1.009093e-01	0.0	1.936790e-01	1.028496e-01	0.0	1.924671e-01	1.038195e-01	0.0	1.911782e-01	1.048095e-01	0.0	1.898431e-01	1.058582e-01	0.0	1.884320e-01	1.069248e-01	0.0	1.869083e-01	1.079534e-01	0.0	1.852790e-01	1.089422e-01	0.0	1.835840e-01	1.099470e-01	0.0	1.818370e-01	1.109833e-01	0.0	1.799952e-01	1.119664e-01	0.0	1.780439e-01	1.128438e-01	0.0	1.760249e-01	1.136823e-01	0.0	1.739709e-01	1.145419e-01	0.0	1.718352e-01	1.152819e-01	0.0	1.696388e-01	1.159218e-01	0.0	1.674194e-01	1.165535e-01	0.0	1.651600e-01	1.170775e-01	0.0	1.628637e-01	1.174375e-01	0.0	1.260719e-01	1.086992e-01	0.0	1.269797e-01	1.094985e-01	0.0	1.605698e-01	1.177939e-01	0.0	1.582739e-01	1.180487e-01	0.0	1.559830e-01	1.181135e-01	0.0	1.537164e-01	1.181192e-01	0.0	1.279634e-01	1.103152e-01	0.0	1.514825e-01	1.181423e-01	0.0	1.492905e-01	1.180431e-01	0.0	1.290238e-01	1.111498e-01	0.0	1.301716e-01	1.119870e-01	0.0	1.314345e-01	1.127851e-01	0.0	1.328038e-01	1.135455e-01	0.0	1.342680e-01	1.142838e-01	0.0	1.358527e-01	1.149299e-01	0.0	1.471572e-01	1.177821e-01	0.0	1.450942e-01	1.173976e-01	0.0	1.375256e-01	1.155470e-01	0.0	1.393010e-01	1.160730e-01	0.0	1.411541e-01	1.165716e-01	0.0	1.430929e-01	1.169868e-01	0.0	1.947940e-01	1.018775e-01	0.0	1.967588e-01	9.996526e-02	0.0	1.975647e-01	9.916217e-02	0.0	1.983788e-01	9.836709e-02	0.0	1.991850e-01	9.756403e-02	0.0	1.999670e-01	9.673730e-02	0.0	2.007223e-01	9.588605e-02	0.0	2.014544e-01	9.501471e-02	0.0	2.021714e-01	9.413077e-02	0.0	2.028863e-01	9.324507e-02	0.0	2.036067e-01	9.236385e-02	0.0	2.043213e-01	9.147795e-02	0.0	2.050158e-01	9.057625e-02	0.0	2.056857e-01	8.965606e-02	0.0	2.063318e-01	8.871909e-02	0.0	2.069609e-01	8.777065e-02	0.0	2.075875e-01	8.682054e-02	0.0	2.082210e-01	8.587508e-02	0.0	2.088524e-01	8.492826e-02	0.0	2.094686e-01	8.397167e-02	0.0	2.100618e-01	8.300067e-02	0.0	2.106328e-01	8.201653e-02	0.0	2.111835e-01	8.102106e-02	0.0	2.117207e-01	8.001827e-02	0.0	2.122551e-01	7.901418e-02	0.0	2.127966e-01	7.801399e-02	0.0	2.133414e-01	7.701578e-02	0.0	2.138792e-01	7.601388e-02	0.0	2.143994e-01	7.500295e-02	0.0	2.148980e-01	7.398139e-02	0.0	2.153791e-01	7.295164e-02	0.0	2.158473e-01	7.191615e-02	0.0	2.163072e-01	7.087712e-02	0.0	2.167629e-01	6.983648e-02	0.0	2.172187e-01	6.879609e-02	0.0	2.176779e-01	6.775744e-02	0.0	2.181376e-01	6.671925e-02	0.0	2.185919e-01	6.567896e-02	0.0	2.190351e-01	6.463417e-02	0.0	2.194666e-01	6.358470e-02	0.0	2.198900e-01	6.253226e-02	0.0	2.203094e-01	6.147851e-02	0.0	2.207277e-01	6.042463e-02	0.0	2.211459e-01	5.937100e-02	0.0	2.215648e-01	5.831794e-02	0.0	2.219844e-01	5.726554e-02	0.0	2.224034e-01	5.621319e-02	0.0	2.228195e-01	5.516009e-02	0.0	2.232319e-01	5.410585e-02	0.0	2.236422e-01	5.305118e-02	0.0	2.240527e-01	5.199697e-02	0.0	2.244644e-01	5.094360e-02	0.0	2.248756e-01	4.989042e-02	0.0	2.252841e-01	4.883663e-02	0.0	2.256905e-01	4.778243e-02	0.0	2.260996e-01	4.672969e-02	0.0	2.265118e-01	4.567861e-02	0.0	2.269237e-01	4.462786e-02	0.0	2.273348e-01	4.357721e-02	0.0	2.277457e-01	4.252697e-02	0.0	2.281565e-01	4.147718e-02	0.0	2.285672e-01	4.042784e-02	0.0	2.289778e-01	3.937894e-02	0.0	2.293883e-01	3.833048e-02	0.0	2.297985e-01	3.728246e-02	0.0	2.302086e-01	3.623489e-02	0.0	2.306185e-01	3.518780e-02	0.0	2.310283e-01	3.414119e-02	0.0	2.314381e-01	3.309511e-02	0.0	2.318477e-01	3.204954e-02	0.0	2.322571e-01	3.100448e-02	0.0	2.326662e-01	2.995985e-02	0.0	2.330748e-01	2.891562e-02	0.0	2.334828e-01	2.787172e-02	0.0	2.338899e-01	2.682814e-02	0.0	2.342967e-01	2.578500e-02	0.0	2.347035e-01	2.474252e-02	0.0	2.351107e-01	2.370082e-02	0.0	2.355173e-01	2.265955e-02	0.0	2.359221e-01	2.161820e-02	0.0	2.363243e-01	2.057652e-02	0.0	2.367255e-01	1.953514e-02	0.0	2.371277e-01	1.849482e-02	0.0	2.375312e-01	1.745565e-02	0.0	2.379326e-01	1.641639e-02	0.0	2.383279e-01	1.537554e-02	0.0	2.387129e-01	1.433153e-02	0.0	2.390890e-01	1.328496e-02	0.0	2.394665e-01	1.223965e-02	0.0	2.398485e-01	1.119671e-02	0.0	2.402264e-01	1.015303e-02	0.0	2.405915e-01	9.105572e-03	0.0	2.409431e-01	8.054255e-03	0.0	2.412846e-01	7.000363e-03	0.0	2.416192e-01	5.945033e-03	0.0	2.419496e-01	4.889170e-03	0.0	2.422742e-01	3.832945e-03	0.0	2.422602e-01	2.732255e-03	0.0	2.419422e-01	1.680078e-03	0.0	2.413341e-01	7.643785e-04	0.0	2.404994e-01	6.567075e-05	0.0	2.399384e-01	-1.854203e-04	0.0	2.393286e-01	-3.867350e-04	0.0	2.386548e-01	-4.395835e-04	0.0	2.379522e-01	-3.792023e-04	0.0	2.372300e-01	-2.149890e-04	0.0	2.365616e-01	1.747354e-04	0.0	2.359167e-01	6.630787e-04	0.0	2.354249e-01	1.353202e-03	0.0	2.349178e-01	2.079569e-03	0.0	2.343947e-01	2.841773e-03	0.0	2.338623e-01	3.645286e-03	0.0	2.333062e-01	4.481493e-03	0.0	2.327249e-01	5.350267e-03	0.0	2.321232e-01	6.255708e-03	0.0	2.315035e-01	7.200159e-03	0.0	2.308540e-01	8.176365e-03	0.0	2.301761e-01	9.185842e-03	0.0	2.294727e-01	1.023072e-02	0.0	2.287393e-01	1.130830e-02	0.0	2.279716e-01	1.241558e-02	0.0	2.271667e-01	1.355016e-02	0.0	2.263294e-01	1.471501e-02	0.0	2.254650e-01	1.591336e-02	0.0	2.245706e-01	1.714238e-02	0.0	2.236306e-01	1.838922e-02	0.0	2.226368e-01	1.964578e-02	0.0	2.216237e-01	2.093732e-02	0.0	2.205754e-01	2.224939e-02	0.0	2.194738e-01	2.356494e-02	0.0	2.183413e-01	2.489972e-02	0.0	2.171928e-01	2.626373e-02	0.0	2.160156e-01	2.764337e-02	0.0	2.147941e-01	2.902177e-02	0.0	2.135287e-01	3.039514e-02	0.0	2.122276e-01	3.176667e-02	0.0	2.109020e-01	3.314275e-02	0.0	2.095663e-01	3.453298e-02	0.0	2.082260e-01	3.593860e-02	0.0	2.068687e-01	3.734316e-02	0.0	2.054855e-01	3.873341e-02	0.0	2.040861e-01	4.011394e-02	0.0	2.026820e-01	4.149165e-02	0.0	2.012786e-01	4.286716e-02	0.0	1.998787e-01	4.423873e-02	0.0	1.984819e-01	4.560131e-02	0.0	1.970869e-01	4.694882e-02	0.0	1.956932e-01	4.827634e-02	0.0	1.943050e-01	4.958369e-02	0.0	1.929321e-01	5.087686e-02	0.0	1.915775e-01	5.215524e-02	0.0	1.902393e-01	5.341279e-02	0.0	1.889153e-01	5.464362e-02	0.0	1.876032e-01	5.584167e-02	0.0	1.863010e-01	5.700123e-02	0.0	1.850101e-01	5.812080e-02	0.0	1.837401e-01	5.920827e-02	0.0	1.825003e-01	6.027217e-02	0.0	1.812953e-01	6.131572e-02	0.0	1.801212e-01	6.233275e-02	0.0	1.789740e-01	6.331689e-02	0.0	1.778504e-01	6.426325e-02	0.0	1.767493e-01	6.516925e-02	0.0	1.756701e-01	6.603310e-02	0.0	1.746129e-01	6.685416e-02	0.0	1.735824e-01	6.763796e-02	0.0	1.725846e-01	6.839231e-02	0.0	1.716242e-01	6.912373e-02	0.0	1.707017e-01	6.983357e-02	0.0	1.698054e-01	7.050686e-02	0.0	1.688616e-01	7.120076e-02	0.0	1.679178e-01	7.189504e-02	0.0	1.669758e-01	7.259179e-02	0.0	1.660316e-01	7.328582e-02	0.0	1.650813e-01	7.397137e-02	0.0	1.641229e-01	7.464572e-02	0.0	1.631581e-01	7.531075e-02	0.0	1.621886e-01	7.596873e-02	0.0	1.612160e-01	7.662184e-02	0.0	1.602416e-01	7.727213e-02	0.0	1.592670e-01	7.792163e-02	0.0	1.582921e-01	7.857036e-02	0.0	1.573151e-01	7.921538e-02	0.0	1.563337e-01	7.985300e-02	0.0	1.553495e-01	8.048577e-02	0.0	1.543679e-01	8.112173e-02	0.0	1.533830e-01	8.175187e-02	0.0	1.523930e-01	8.237309e-02	0.0	1.514034e-01	8.299380e-02	0.0	1.504141e-01	8.361417e-02	0.0	1.494244e-01	8.423267e-02	0.0	1.484336e-01	8.484831e-02	0.0	1.474404e-01	8.545878e-02	0.0	1.464413e-01	8.605822e-02	0.0	1.454344e-01	8.664293e-02	0.0	1.444244e-01	8.722072e-02	0.0	1.434164e-01	8.780022e-02	0.0	1.424082e-01	8.837789e-02	0.0	1.413955e-01	8.894565e-02	0.0	1.403734e-01	8.949448e-02	0.0	1.393386e-01	9.001652e-02	0.0	1.382962e-01	9.052133e-02	0.0	1.372554e-01	9.102686e-02	0.0	1.362109e-01	9.152214e-02	0.0	1.351631e-01	9.200780e-02	0.0	1.341159e-01	9.249182e-02	0.0	1.330567e-01	9.294636e-02	0.0	1.320148e-01	9.343553e-02	0.0	1.310009e-01	9.397835e-02	0.0	1.299865e-01	9.451742e-02	0.0	1.289946e-01	9.509367e-02	0.0	1.280359e-01	9.572161e-02	0.0	1.270951e-01	9.637271e-02	0.0	1.262321e-01	9.712220e-02	0.0	1.254107e-01	9.791150e-02	0.0	1.247290e-01	9.882539e-02	0.0	1.241545e-01	9.980474e-02	0.0	1.238457e-01	1.008975e-01	0.0	1.235755e-01	1.019995e-01	0.0	1.235461e-01	1.027315e-01	0.0	1.235724e-01	1.035154e-01	0.0	1.236680e-01	1.043459e-01	0.0	1.238757e-01	1.052153e-01	0.0	1.241697e-01	1.061192e-01	0.0	1.246764e-01	1.069957e-01	0.0	1.252599e-01	1.078996e-01	0.0	
CELLS 266	798
2	41	42	2	42	43	2	43	44	2	44	45	2	45	46	2	46	47	2	47	48	2	48	49	2	49	50	2	50	51	2	51	52	2	52	53	2	53	54	2	54	55	2	55	56	2	56	57	2	57	58	2	58	59	2	59	60	2	60	61	2	61	62	2	62	63	2	63	64	2	64	65	2	65	66	2	66	67	2	67	68	2	68	69	2	69	70	2	70	71	2	71	72	2	72	73	2	73	74	2	74	75	2	75	76	2	76	77	2	77	78	2	78	79	2	79	80	2	80	81	2	81	82	2	82	83	2	83	84	2	84	85	2	85	86	2	86	87	2	87	88	2	88	89	2	89	90	2	90	91	2	91	92	2	92	93	2	93	94	2	94	95	2	95	96	2	96	97	2	97	98	2	98	99	2	99	100	2	100	101	2	101	102	2	102	103	2	103	104	2	104	105	2	105	106	2	106	107	2	107	108	2	108	109	2	109	110	2	110	111	2	111	112	2	112	113	2	113	114	2	114	115	2	115	116	2	116	117	2	117	118	2	118	119	2	119	120	2	120	121	2	121	122	2	122	123	2	123	124	2	124	125	2	125	126	2	126	127	2	127	128	2	128	129	2	129	130	2	130	131	2	131	132	2	132	133	2	133	134	2	134	135	2	135	136	2	136	137	2	137	138	2	138	139	2	139	140	2	140	141	2	141	142	2	142	143	2	143	144	2	144	145	2	145	146	2	146	147	2	147	148	2	148	149	2	149	150	2	150	151	2	151	152	2	152	153	2	153	154	2	154	155	2	155	156	2	156	157	2	157	158	2	158	159	2	159	160	2	160	161	2	161	162	2	162	163	2	163	164	2	164	165	2	165	166	2	166	167	2	167	168	2	168	169	2	169	170	2	170	171	2	171	172	2	172	173	2	173	174	2	174	175	2	175	176	2	176	177	2	177	178	2	178	179	2	179	180	2	180	181	2	181	182	2	182	183	2	183	184	2	184	185	2	185	186	2	186	187	2	187	188	2	188	189	2	189	190	2	190	191	2	191	192	2	192	193	2	193	194	2	194	195	2	195	196	2	196	197	2	197	198	2	198	199	2	199	200	2	200	201	2	201	202	2	202	203	2	203	204	2	204	205	2	205	206	2	206	207	2	207	208	2	208	209	2	209	210	2	210	211	2	211	212	2	212	213	2	213	214	2	214	215	2	215	216	2	216	217	2	217	218	2	218	219	2	219	220	2	220	221	2	221	222	2	222	223	2	223	224	2	224	225	2	225	226	2	226	227	2	227	228	2	228	229	2	229	230	2	230	231	2	231	232	2	232	233	2	233	234	2	234	235	2	235	236	2	236	237	2	237	238	2	238	239	2	239	240	2	240	241	2	241	242	2	242	243	2	243	244	2	244	245	2	245	246	2	246	247	2	247	248	2	248	249	2	249	250	2	250	251	2	251	252	2	252	253	2	253	254	2	254	255	2	255	256	2	256	257	2	257	258	2	258	259	2	259	260	2	260	261	2	261	262	2	262	263	2	263	264	2	264	265	2	265	19	2	19	20	2	20	25	2	25	28	2	28	29	2	29	30	2	30	31	2	31	32	2	32	33	2	33	36	2	36	37	2	37	38	2	38	39	2	39	35	2	35	34	2	34	27	2	27	26	2	26	24	2	24	23	2	23	22	2	22	21	2	21	18	2	18	17	2	17	16	2	16	15	2	15	14	2	14	13	2	13	12	2	12	11	2	11	10	2	10	9	2	9	8	2	8	7	2	7	6	2	6	5	2	5	4	2	4	3	2	3	2	2	2	1	2	1	40	2	40	0	2	0	41	
CELL_TYPES 266
3	3	3	3	3	3	3	3	3	3	3	3	3	3	3	3	3	3	3	3	3	3	3	3	3	3	3	3	3	3	3	3	3	3	3	3	3	3	3	3	3	3	3	3	3	3	3	3	3	3	3	3	3	3	3	3	3	3	3	3	3	3	3	3	3	3	3	3	3	3	3	3	3	3	3	3	3	3	3	3	3	3	3	3	3	3	3	3	3	3	3	3	3	3	3	3	3	3	3	3	3	3	3	3	3	3	3	3	3	3	3	3	3	3	3	3	3	3	3	3	3	3	3	3	3	3	3	3	3	3	3	3	3	3	3	3	3	3	3	3	3	3	3	3	3	3	3	3	3	3	3	3	3	3	3	3	3	3	3	3	3	3	3	3	3	3	3	3	3	3	3	3	3	3	3	3	3	3	3	3	3	3	3	3	3	3	3	3	3	3	3	3	3	3	3	3	3	3	3	3	3	3	3	3	3	3	3	3	3	3	3	3	3	3	3	3	3	3	3	3	3	3	3	3	3	3	3	3	3	3	3	3	3	3	3	3	3	3	3	3	3	3	3	3	3	3	3	3	3	3	3	3	3	3	3	3	3	3	3	3	3	3	3	3	3	3	
POINT_DATA 266

SCALARS Density float 1
LOOKUP_TABLE default
1.438497e+00	1.503886e+00	1.581452e+00	1.628545e+00	1.628047e+00	1.642140e+00	1.695950e+00	1.768222e+00	1.794343e+00	1.795214e+00	1.830642e+00	1.906089e+00	1.936434e+00	1.953379e+00	2.001374e+00	2.042506e+00	2.056225e+00	2.096832e+00	2.142764e+00	2.588087e+00	2.590722e+00	2.155362e+00	2.186040e+00	2.240016e+00	2.264443e+00	2.576639e+00	2.266319e+00	2.286359e+00	2.556611e+00	2.528991e+00	2.504908e+00	2.486137e+00	2.460451e+00	2.443743e+00	2.323285e+00	2.366250e+00	2.428155e+00	2.414385e+00	2.400726e+00	2.386500e+00	1.446357e+00	1.455629e+00	1.458691e+00	1.421841e+00	1.362743e+00	1.294901e+00	1.247723e+00	1.224504e+00	1.225271e+00	1.229974e+00	1.212250e+00	1.171108e+00	1.120395e+00	1.078652e+00	1.055955e+00	1.056955e+00	1.069192e+00	1.070018e+00	1.043882e+00	1.011374e+00	9.770467e-01	9.503471e-01	9.395896e-01	9.487103e-01	9.600775e-01	9.667904e-01	9.630699e-01	9.433515e-01	9.249418e-01	9.200424e-01	9.423786e-01	9.799599e-01	1.026059e+00	1.071488e+00	1.110554e+00	1.142885e+00	1.170786e+00	1.196179e+00	1.219904e+00	1.241768e+00	1.261724e+00	1.279671e+00	1.296137e+00	1.311108e+00	1.324608e+00	1.337249e+00	1.350988e+00	1.362776e+00	1.374413e+00	1.385371e+00	1.396106e+00	1.406486e+00	1.416627e+00	1.426543e+00	1.436351e+00	1.445872e+00	1.454989e+00	1.463709e+00	1.472128e+00	1.480225e+00	1.488019e+00	1.495528e+00	1.502779e+00	1.509770e+00	1.516497e+00	1.522976e+00	1.529227e+00	1.535273e+00	1.541107e+00	1.546721e+00	1.552127e+00	1.557405e+00	1.562546e+00	1.567528e+00	1.572376e+00	1.577038e+00	1.581503e+00	1.585748e+00	1.589836e+00	1.593926e+00	1.598163e+00	1.602492e+00	1.606648e+00	1.610408e+00	1.614021e+00	1.617711e+00	1.622289e+00	1.628180e+00	1.634057e+00	1.639101e+00	1.643720e+00	1.649152e+00	1.655682e+00	1.662983e+00	1.669664e+00	1.677591e+00	1.674422e+00	1.678597e+00	1.676580e+00	1.714149e+00	1.713121e+00	1.711444e+00	1.690606e+00	1.678328e+00	1.669933e+00	1.612085e+00	1.536884e+00	1.442880e+00	1.553764e+00	1.671936e+00	1.750260e+00	1.823534e+00	1.876785e+00	1.919755e+00	1.963341e+00	2.006115e+00	2.041265e+00	2.073757e+00	2.105754e+00	2.135504e+00	2.160884e+00	2.182586e+00	2.204408e+00	2.228857e+00	2.253927e+00	2.270081e+00	2.283293e+00	2.302106e+00	2.317639e+00	2.328076e+00	2.341330e+00	2.358458e+00	2.375428e+00	2.387820e+00	2.395761e+00	2.402194e+00	2.410415e+00	2.421698e+00	2.435310e+00	2.447626e+00	2.456835e+00	2.465164e+00	2.474322e+00	2.484494e+00	2.495405e+00	2.506319e+00	2.516448e+00	2.525232e+00	2.533551e+00	2.542607e+00	2.552307e+00	2.561736e+00	2.570666e+00	2.578374e+00	2.584196e+00	2.588656e+00	2.593026e+00	2.598498e+00	2.604923e+00	2.611256e+00	2.617141e+00	2.622518e+00	2.626827e+00	2.629932e+00	2.631878e+00	2.633429e+00	2.635582e+00	2.638955e+00	2.642457e+00	2.644292e+00	2.646341e+00	2.649074e+00	2.652016e+00	2.655024e+00	2.657604e+00	2.659512e+00	2.661037e+00	2.662383e+00	2.663809e+00	2.665532e+00	2.667467e+00	2.669578e+00	2.671559e+00	2.673142e+00	2.674981e+00	2.677232e+00	2.678888e+00	2.680477e+00	2.682399e+00	2.684429e+00	2.686541e+00	2.688786e+00	2.691132e+00	2.692854e+00	2.693849e+00	2.695420e+00	2.697367e+00	2.699411e+00	2.701419e+00	2.702754e+00	2.702662e+00	2.702666e+00	2.703435e+00	2.703520e+00	2.704027e+00	2.702749e+00	2.700827e+00	2.702549e+00	2.704393e+00	2.704952e+00	2.709087e+00	2.711836e+00	2.718736e+00	2.725383e+00	2.736560e+00	2.747624e+00	2.767984e+00	2.772542e+00	2.772888e+00	2.755345e+00	2.743300e+00	2.724877e+00	2.702766e+00	2.669096e+00	2.638106e+00	2.612686e+00	
SCALARS X-Momentum float 1
LOOKUP_TABLE default
0.000000e+00	0.000000e+00	0.000000e+00	0.000000e+00	0.000000e+00	0.000000e+00	0.000000e+00	0.000000e+00	0.000000e+00	0.000000e+00	0.000000e+00	0.000000e+00	0.000000e+00	0.000000e+00	0.000000e+00	0.000000e+00	0.000000e+00	0.000000e+00	0.000000e+00	0.000000e+00	0.000000e+00	0.000000e+00	0.000000e+00	0.000000e+00	0.000000e+00	0.000000e+00	0.000000e+00	0.000000e+00	0.000000e+00	0.000000e+00	0.000000e+00	0.000000e+00	0.000000e+00	0.000000e+00	0.000000e+00	0.000000e+00	0.000000e+00	0.000000e+00	0.000000e+00	0.000000e+00	0.000000e+00	0.000000e+00	0.000000e+00	0.000000e+00	0.000000e+00	0.000000e+00	0.000000e+00	0.000000e+00	0.000000e+00	0.000000e+00	0.000000e+00	0.000000e+00	0.000000e+00	0.000000e+00	0.000000e+00	0.000000e+00	0.000000e+00	0.000000e+00	0.000000e+00	0.000000e+00	0.000000e+00	0.000000e+00	0.000000e+00	0.000000e+00	0.000000e+00	0.000000e+00	0.000000e+00	0.000000e+00	0.000000e+00	0.000000e+00	0.000000e+00	0.000000e+00	0.000000e+00	0.000000e+00	0.000000e+00	0.000000e+00	0.000000e+00	0.000000e+00	0.000000e+00	0.000000e+00	0.000000e+00	0.000000e+00	0.000000e+00	0.000000e+00	0.000000e+00	0.000000e+00	0.000000e+00	0.000000e+00	0.000000e+00	0.000000e+00	0.000000e+00	0.000000e+00	0.000000e+00	0.000000e+00	0.000000e+00	0.000000e+00	0.000000e+00	0.000000e+00	0.000000e+00	0.000000e+00	0.000000e+00	0.000000e+00	0.000000e+00	0.000000e+00	0.000000e+00	0.000000e+00	0.000000e+00	0.000000e+00	0.000000e+00	0.000000e+00	0.000000e+00	0.000000e+00	0.000000e+00	0.000000e+00	0.000000e+00	0.000000e+00	0.000000e+00	0.000000e+00	0.000000e+00	0.000000e+00	0.000000e+00	0.000000e+00	0.000000e+00	0.000000e+00	0.000000e+00	0.000000e+00	0.000000e+00	0.000000e+00	0.000000e+00	0.000000e+00	0.000000e+00	0.000000e+00	0.000000e+00	0.000000e+00	0.000000e+00	0.000000e+00	0.000000e+00	0.000000e+00	0.000000e+00	0.000000e+00	0.000000e+00	0.000000e+00	0.000000e+00	0.000000e+00	0.000000e+00	0.000000e+00	0.000000e+00	0.000000e+00	0.000000e+00	0.000000e+00	0.000000e+00	0.000000e+00	0.000000e+00	0.000000e+00	0.000000e+00	0.000000e+00	0.000000e+00	0.000000e+00	0.000000e+00	0.000000e+00	0.000000e+00	0.000000e+00	0.000000e+00	0.000000e+00	0.000000e+00	0.000000e+00	0.000000e+00	0.000000e+00	0.000000e+00	0.000000e+00	0.000000e+00	0.000000e+00	0.000000e+00	0.000000e+00	0.000000e+00	0.000000e+00	0.000000e+00	0.000000e+00	0.000000e+00	0.000000e+00	0.000000e+00	0.000000e+00	0.000000e+00	0.000000e+00	0.000000e+00	0.000000e+00	0.000000e+00	0.000000e+00	0.000000e+00	0.000000e+00	0.000000e+00	0.000000e+00	0.000000e+00	0.000000e+00	0.000000e+00	0.000000e+00	0.000000e+00	0.000000e+00	0.000000e+00	0.000000e+00	0.000000e+00	0.000000e+00	0.000000e+00	0.000000e+00	0.000000e+00	0.000000e+00	0.000000e+00	0.000000e+00	0.000000e+00	0.000000e+00	0.000000e+00	0.000000e+00	0.000000e+00	0.000000e+00	0.000000e+00	0.000000e+00	0.000000e+00	0.000000e+00	0.000000e+00	0.000000e+00	0.000000e+00	0.000000e+00	0.000000e+00	0.000000e+00	0.000000e+00	0.000000e+00	0.000000e+00	0.000000e+00	0.000000e+00	0.000000e+00	0.000000e+00	0.000000e+00	0.000000e+00	0.000000e+00	0.000000e+00	0.000000e+00	0.000000e+00	0.000000e+00	0.000000e+00	0.000000e+00	0.000000e+00	0.000000e+00	0.000000e+00	0.000000e+00	0.000000e+00	0.000000e+00	0.000000e+00	0.000000e+00	0.000000e+00	0.000000e+00	0.000000e+00	0.000000e+00	0.000000e+00	0.000000e+00	0.000000e+00	0.000000e+00	0.000000e+00	0.000000e+00	0.000000e+00	0.000000e+00	0.000000e+00	0.000000e+00	0.000000e+00	0.000000e+00	0.000000e+00	0.000000e+00	
SCALARS Y-Momentum float 1
LOOKUP_TABLE default
0.000000e+00	0.000000e+00	0.000000e+00	0.000000e+00	0.000000e+00	0.000000e+00	0.000000e+00	0.000000e+00	0.000000e+00	0.000000e+00	0.000000e+00	0.000000e+00	0.000000e+00	0.000000e+00	0.000000e+00	0.000000e+00	0.000000e+00	0.000000e+00	0.000000e+00	0.000000e+00	0.000000e+00	0.000000e+00	0.000000e+00	0.000000e+00	0.000000e+00	0.000000e+00	0.000000e+00	0.000000e+00	0.000000e+00	0.000000e+00	0.000000e+00	0.000000e+00	0.000000e+00	0.000000e+00	0.000000e+00	0.000000e+00	0.000000e+00	0.000000e+00	0.000000e+00	0.000000e+00	0.000000e+00	0.000000e+00	0.000000e+00	0.000000e+00	0.000000e+00	0.000000e+00	0.000000e+00	0.000000e+00	0.000000e+00	0.000000e+00	0.000000e+00	0.000000e+00	0.000000e+00	0.000000e+00	0.000000e+00	0.000000e+00	0.000000e+00	0.000000e+00	0.000000e+00	0.000000e+00	0.000000e+00	0.000000e+00	0.000000e+00	0.000000e+00	0.000000e+00	0.000000e+00	0.000000e+00	0.000000e+00	0.000000e+00	0.000000e+00	0.000000e+00	0.000000e+00	0.000000e+00	0.000000e+00	0.000000e+00	0.000000e+00	0.000000e+00	0.000000e+00	0.000000e+00	0.000000e+00	0.000000e+00	0.000000e+00	0.000000e+00	0.000000e+00	0.000000e+00	0.000000e+00	0.000000e+00	0.000000e+00	0.000000e+00	0.000000e+00	0.000000e+00	0.000000e+00	0.000000e+00	0.000000e+00	0.000000e+00	0.000000e+00	0.000000e+00	0.000000e+00	0.000000e+00	0.000000e+00	0.000000e+00	0.000000e+00	0.000000e+00	0.000000e+00	0.000000e+00	0.000000e+00	0.000000e+00	0.000000e+00	0.000000e+00	0.000000e+00	0.000000e+00	0.000000e+00	0.000000e+00	0.000000e+00	0.000000e+00	0.000000e+00	0.000000e+00	0.000000e+00	0.000000e+00	0.000000e+00	0.000000e+00	0.000000e+00	0.000000e+00	0.000000e+00	0.000000e+00	0.000000e+00	0.000000e+00	0.000000e+00	0.000000e+00	0.000000e+00	0.000000e+00	0.000000e+00	0.000000e+00	0.000000e+00	0.000000e+00	0.000000e+00	0.000000e+00	0.000000e+00	0.000000e+00	0.000000e+00	0.000000e+00	0.000000e+00	0.000000e+00	0.000000e+00	0.000000e+00	0.000000e+00	0.000000e+00	0.000000e+00	0.000000e+00	0.000000e+00	0.000000e+00	0.000000e+00	0.000000e+00	0.000000e+00	0.000000e+00	0.000000e+00	0.000000e+00	0.000000e+00	0.000000e+00	0.000000e+00	0.000000e+00	0.000000e+00	0.000000e+00	0.000000e+00	0.000000e+00	0.000000e+00	0.000000e+00	0.000000e+00	0.000000e+00	0.000000e+00	0.000000e+00	0.000000e+00	0.000000e+00	0.000000e+00	0.000000e+00	0.000000e+00	0.000000e+00	0.000000e+00	0.000000e+00	0.000000e+00	0.000000e+00	0.000000e+00	0.000000e+00	0.000000e+00	0.000000e+00	0.000000e+00	0.000000e+00	0.000000e+00	0.000000e+00	0.000000e+00	0.000000e+00	0.000000e+00	0.000000e+00	0.000000e+00	0.000000e+00	0.000000e+00	0.000000e+00	0.000000e+00	0.000000e+00	0.000000e+00	0.000000e+00	0.000000e+00	0.000000e+00	0.000000e+00	0.000000e+00	0.000000e+00	0.000000e+00	0.000000e+00	0.000000e+00	0.000000e+00	0.000000e+00	0.000000e+00	0.000000e+00	0.000000e+00	0.000000e+00	0.000000e+00	0.000000e+00	0.000000e+00	0.000000e+00	0.000000e+00	0.000000e+00	0.000000e+00	0.000000e+00	0.000000e+00	0.000000e+00	0.000000e+00	0.000000e+00	0.000000e+00	0.000000e+00	0.000000e+00	0.000000e+00	0.000000e+00	0.000000e+00	0.000000e+00	0.000000e+00	0.000000e+00	0.000000e+00	0.000000e+00	0.000000e+00	0.000000e+00	0.000000e+00	0.000000e+00	0.000000e+00	0.000000e+00	0.000000e+00	0.000000e+00	0.000000e+00	0.000000e+00	0.000000e+00	0.000000e+00	0.000000e+00	0.000000e+00	0.000000e+00	0.000000e+00	0.000000e+00	0.000000e+00	0.000000e+00	0.000000e+00	0.000000e+00	0.000000e+00	0.000000e+00	0.000000e+00	0.000000e+00	0.000000e+00	0.000000e+00	0.000000e+00	
SCALARS Energy float 1
LOOKUP_TABLE default
1.923173e+06	2.012996e+06	2.123429e+06	2.185617e+06	2.183464e+06	2.201364e+06	2.277411e+06	2.379322e+06	2.413402e+06	2.411961e+06	2.459995e+06	2.568933e+06	2.606680e+06	2.628355e+06	2.698334e+06	2.755020e+06	2.771881e+06	2.828914e+06	2.893325e+06	3.505722e+06	3.512897e+06	2.908804e+06	2.950779e+06	3.028940e+06	3.059409e+06	3.492776e+06	3.061135e+06	3.089030e+06	3.465475e+06	3.425015e+06	3.391489e+06	3.366480e+06	3.329861e+06	3.307075e+06	3.141242e+06	3.202558e+06	3.285966e+06	3.266706e+06	3.248009e+06	3.229466e+06	1.935106e+06	1.948657e+06	1.954401e+06	1.903221e+06	1.822628e+06	1.728939e+06	1.663460e+06	1.633267e+06	1.633833e+06	1.641974e+06	1.618096e+06	1.561444e+06	1.492045e+06	1.434469e+06	1.404895e+06	1.405675e+06	1.423327e+06	1.425550e+06	1.389202e+06	1.345225e+06	1.297700e+06	1.262596e+06	1.246773e+06	1.260760e+06	1.276054e+06	1.285665e+06	1.281590e+06	1.253510e+06	1.228845e+06	1.221540e+06	1.253213e+06	1.304858e+06	1.368429e+06	1.430618e+06	1.483834e+06	1.527550e+06	1.565232e+06	1.599540e+06	1.631590e+06	1.661077e+06	1.687937e+06	1.712029e+06	1.734179e+06	1.754271e+06	1.772232e+06	1.789046e+06	1.807630e+06	1.823319e+06	1.838930e+06	1.853591e+06	1.867989e+06	1.881911e+06	1.895533e+06	1.908848e+06	1.922010e+06	1.934817e+06	1.947136e+06	1.958930e+06	1.970339e+06	1.981337e+06	1.991943e+06	2.002178e+06	2.012075e+06	2.021631e+06	2.030836e+06	2.039721e+06	2.048304e+06	2.056615e+06	2.064647e+06	2.072391e+06	2.079861e+06	2.087165e+06	2.094290e+06	2.101203e+06	2.107929e+06	2.114394e+06	2.120583e+06	2.126494e+06	2.132213e+06	2.137936e+06	2.143823e+06	2.149806e+06	2.155566e+06	2.160860e+06	2.165928e+06	2.171076e+06	2.177522e+06	2.185632e+06	2.193696e+06	2.200691e+06	2.207052e+06	2.214615e+06	2.223778e+06	2.233804e+06	2.242996e+06	2.253749e+06	2.247911e+06	2.256771e+06	2.255754e+06	2.311274e+06	2.311873e+06	2.312149e+06	2.281021e+06	2.264387e+06	2.252515e+06	2.186105e+06	2.075424e+06	1.916330e+06	2.088445e+06	2.243563e+06	2.351878e+06	2.451707e+06	2.525131e+06	2.584739e+06	2.645028e+06	2.703408e+06	2.752385e+06	2.797470e+06	2.841372e+06	2.882766e+06	2.918229e+06	2.948071e+06	2.978215e+06	3.011966e+06	3.047128e+06	3.069180e+06	3.087164e+06	3.113117e+06	3.135242e+06	3.148948e+06	3.167508e+06	3.190936e+06	3.215119e+06	3.232318e+06	3.242806e+06	3.251418e+06	3.263120e+06	3.278602e+06	3.297119e+06	3.314641e+06	3.327233e+06	3.338584e+06	3.351240e+06	3.365355e+06	3.380357e+06	3.395679e+06	3.409823e+06	3.421917e+06	3.433315e+06	3.445788e+06	3.459059e+06	3.472342e+06	3.485068e+06	3.495896e+06	3.503827e+06	3.509722e+06	3.515813e+06	3.523341e+06	3.532086e+06	3.540855e+06	3.549416e+06	3.557032e+06	3.563090e+06	3.567348e+06	3.569732e+06	3.571796e+06	3.574991e+06	3.579630e+06	3.584316e+06	3.586937e+06	3.589813e+06	3.593590e+06	3.597607e+06	3.601904e+06	3.605580e+06	3.608218e+06	3.610242e+06	3.612085e+06	3.614020e+06	3.616439e+06	3.619166e+06	3.622166e+06	3.624935e+06	3.627060e+06	3.629627e+06	3.632688e+06	3.635034e+06	3.637230e+06	3.639916e+06	3.642718e+06	3.645691e+06	3.648926e+06	3.652306e+06	3.654714e+06	3.655924e+06	3.658110e+06	3.660777e+06	3.663671e+06	3.666750e+06	3.668695e+06	3.668276e+06	3.668309e+06	3.669419e+06	3.669537e+06	3.670310e+06	3.668470e+06	3.666107e+06	3.668163e+06	3.670810e+06	3.671517e+06	3.677230e+06	3.680891e+06	3.690191e+06	3.700010e+06	3.715934e+06	3.733018e+06	3.765218e+06	3.766328e+06	3.770294e+06	3.743463e+06	3.727104e+06	3.700885e+06	3.670391e+06	3.620612e+06	3.578775e+06	3.537531e+06	
SCALARS TKE float 1
LOOKUP_TABLE default
1.000000e-10	1.000000e-10	1.000000e-10	1.000000e-10	1.000000e-10	1.000000e-10	1.000000e-10	1.000000e-10	1.000000e-10	1.000000e-10	1.000000e-10	1.000000e-10	1.000000e-10	1.000000e-10	1.000000e-10	1.000000e-10	1.000000e-10	1.000000e-10	1.000000e-10	1.000000e-10	1.000000e-10	1.000000e-10	1.000000e-10	1.000000e-10	1.000000e-10	1.000000e-10	1.000000e-10	1.000000e-10	1.000000e-10	1.000000e-10	1.000000e-10	1.000000e-10	1.000000e-10	1.000000e-10	1.000000e-10	1.000000e-10	1.000000e-10	1.000000e-10	1.000000e-10	1.000000e-10	1.000000e-10	1.000000e-10	1.000000e-10	1.000000e-10	1.000000e-10	1.000000e-10	1.000000e-10	1.000000e-10	1.000000e-10	1.000000e-10	1.000000e-10	1.000000e-10	1.000000e-10	1.000000e-10	1.000000e-10	1.000000e-10	1.000000e-10	1.000000e-10	1.000000e-10	1.000000e-10	1.000000e-10	1.000000e-10	1.000000e-10	1.000000e-10	1.000000e-10	1.000000e-10	1.000000e-10	1.000000e-10	1.000000e-10	1.000000e-10	1.000000e-10	1.000000e-10	1.000000e-10	1.000000e-10	1.000000e-10	1.000000e-10	1.000000e-10	1.000000e-10	1.000000e-10	1.000000e-10	1.000000e-10	1.000000e-10	1.000000e-10	1.000000e-10	1.000000e-10	1.000000e-10	1.000000e-10	1.000000e-10	1.000000e-10	1.000000e-10	1.000000e-10	1.000000e-10	1.000000e-10	1.000000e-10	1.000000e-10	1.000000e-10	1.000000e-10	1.000000e-10	1.000000e-10	1.000000e-10	1.000000e-10	1.000000e-10	1.000000e-10	1.000000e-10	1.000000e-10	1.000000e-10	1.000000e-10	1.000000e-10	1.000000e-10	1.000000e-10	1.000000e-10	1.000000e-10	1.000000e-10	1.000000e-10	1.000000e-10	1.000000e-10	1.000000e-10	1.000000e-10	1.000000e-10	1.000000e-10	1.000000e-10	1.000000e-10	1.000000e-10	1.000000e-10	1.000000e-10	1.000000e-10	1.000000e-10	1.000000e-10	1.000000e-10	1.000000e-10	1.000000e-10	1.000000e-10	1.000000e-10	1.000000e-10	1.000000e-10	1.000000e-10	1.000000e-10	1.000000e-10	1.000000e-10	1.000000e-10	1.000000e-10	1.000000e-10	1.000000e-10	1.000000e-10	1.000000e-10	1.000000e-10	1.000000e-10	1.000000e-10	1.000000e-10	1.000000e-10	1.000000e-10	1.000000e-10	1.000000e-10	1.000000e-10	1.000000e-10	1.000000e-10	1.000000e-10	1.000000e-10	1.000000e-10	1.000000e-10	1.000000e-10	1.000000e-10	1.000000e-10	1.000000e-10	1.000000e-10	1.000000e-10	1.000000e-10	1.000000e-10	1.000000e-10	1.000000e-10	1.000000e-10	1.000000e-10	1.000000e-10	1.000000e-10	1.000000e-10	1.000000e-10	1.000000e-10	1.000000e-10	1.000000e-10	1.000000e-10	1.000000e-10	1.000000e-10	1.000000e-10	1.000000e-10	1.000000e-10	1.000000e-10	1.000000e-10	1.000000e-10	1.000000e-10	1.000000e-10	1.000000e-10	1.000000e-10	1.000000e-10	1.000000e-10	1.000000e-10	1.000000e-10	1.000000e-10	1.000000e-10	1.000000e-10	1.000000e-10	1.000000e-10	1.000000e-10	1.000000e-10	1.000000e-10	1.000000e-10	1.000000e-10	1.000000e-10	1.000000e-10	1.000000e-10	1.000000e-10	1.000000e-10	1.000000e-10	1.000000e-10	1.000000e-10	1.000000e-10	1.000000e-10	1.000000e-10	1.000000e-10	1.000000e-10	1.000000e-10	1.000000e-10	1.000000e-10	1.000000e-10	1.000000e-10	1.000000e-10	1.000000e-10	1.000000e-10	1.000000e-10	1.000000e-10	1.000000e-10	1.000000e-10	1.000000e-10	1.000000e-10	1.000000e-10	1.000000e-10	1.000000e-10	1.000000e-10	1.000000e-10	1.000000e-10	1.000000e-10	1.000000e-10	1.000000e-10	1.000000e-10	1.000000e-10	1.000000e-10	1.000000e-10	1.000000e-10	1.000000e-10	1.000000e-10	1.000000e-10	1.000000e-10	1.000000e-10	1.000000e-10	1.000000e-10	1.000000e-10	1.000000e-10	1.000000e-10	1.000000e-10	1.000000e-10	1.000000e-10	1.000000e-10	1.000000e-10	1.000000e-10	1.000000e-10	1.000000e-10	1.000000e-10	
SCALARS Omega float 1
LOOKUP_TABLE default