# vtk DataFile Version 3.0
vtk output
ASCII
DATASET UNSTRUCTURED_GRID
POINTS 266 float
1.958145e-01	1.009093e-01	0.0	1.936790e-01	1.028496e-01	0.0	1.924671e-01	1.038195e-01	0.0	1.911782e-01	1.048095e-01	0.0	1.898431e-01	1.058582e-01	0.0	1.884320e-01	1.069248e-01	0.0	1.869083e-01	1.079534e-01	0.0	1.852790e-01	1.089422e-01	0.0	1.835840e-01	1.099470e-01	0.0	1.818370e-01	1.109833e-01	0.0	1.799952e-01	1.119664e-01	0.0	1.780439e-01	1.128438e-01	0.0	1.760249e-01	1.136823e-01	0.0	1.739709e-01	1.145419e-01	0.0	1.718352e-01	1.152819e-01	0.0	1.696388e-01	1.159218e-01	0.0	1.674194e-01	1.165535e-01	0.0	1.651600e-01	1.170775e-01	0.0	1.628637e-01	1.174375e-01	0.0	1.260719e-01	1.086992e-01	0.0	1.269797e-01	1.094985e-01	0.0	1.605698e-01	1.177939e-01	0.0	1.582739e-01	1.180487e-01	0.0	1.559830e-01	1.181135e-01	0.0	1.537164e-01	1.181192e-01	0.0	1.279634e-01	1.103152e-01	0.0	1.514825e-01	1.181423e-01	0.0	1.492905e-01	1.180431e-01	0.0	1.290238e-01	1.111498e-01	0.0	1.301716e-01	1.119870e-01	0.0	1.314345e-01	1.127851e-01	0.0	1.328038e-01	1.135455e-01	0.0	1.342680e-01	1.142838e-01	0.0	1.358527e-01	1.149299e-01	0.0	1.471572e-01	1.177821e-01	0.0	1.450942e-01	1.173976e-01	0.0	1.375256e-01	1.155470e-01	0.0	1.393010e-01	1.160730e-01	0.0	1.411541e-01	1.165716e-01	0.0	1.430929e-01	1.169868e-01	0.0	1.947940e-01	1.018775e-01	0.0	1.967588e-01	9.996526e-02	0.0	1.975647e-01	9.916217e-02	0.0	1.983788e-01	9.836709e-02	0.0	1.991850e-01	9.756403e-02	0.0	1.999670e-01	9.673730e-02	0.0	2.007223e-01	9.588605e-02	0.0	2.014544e-01	9.501471e-02	0.0	2.021714e-01	9.413077e-02	0.0	2.028863e-01	9.324507e-02	0.0	2.036067e-01	9.236385e-02	0.0	2.043213e-01	9.147795e-02	0.0	2.050158e-01	9.057625e-02	0.0	2.056857e-01	8.965606e-02	0.0	2.063318e-01	8.871909e-02	0.0	2.069609e-01	8.777065e-02	0.0	2.075875e-01	8.682054e-02	0.0	2.082210e-01	8.587508e-02	0.0	2.088524e-01	8.492826e-02	0.0	2.094686e-01	8.397167e-02	0.0	2.100618e-01	8.300067e-02	0.0	2.106328e-01	8.201653e-02	0.0	2.111835e-01	8.102106e-02	0.0	2.117207e-01	8.001827e-02	0.0	2.122551e-01	7.901418e-02	0.0	2.127966e-01	7.801399e-02	0.0	2.133414e-01	7.701578e-02	0.0	2.138792e-01	7.601388e-02	0.0	2.143994e-01	7.500295e-02	0.0	2.148980e-01	7.398139e-02	0.0	2.153791e-01	7.295164e-02	0.0	2.158473e-01	7.191615e-02	0.0	2.163072e-01	7.087712e-02	0.0	2.167629e-01	6.983648e-02	0.0	2.172187e-01	6.879609e-02	0.0	2.176779e-01	6.775744e-02	0.0	2.181376e-01	6.671925e-02	0.0	2.185919e-01	6.567896e-02	0.0	2.190351e-01	6.463417e-02	0.0	2.194666e-01	6.358470e-02	0.0	2.198900e-01	6.253226e-02	0.0	2.203094e-01	6.147851e-02	0.0	2.207277e-01	6.042463e-02	0.0	2.211459e-01	5.937100e-02	0.0	2.215648e-01	5.831794e-02	0.0	2.219844e-01	5.726554e-02	0.0	2.224034e-01	5.621319e-02	0.0	2.228195e-01	5.516009e-02	0.0	2.232319e-01	5.410585e-02	0.0	2.236422e-01	5.305118e-02	0.0	2.240527e-01	5.199697e-02	0.0	2.244644e-01	5.094360e-02	0.0	2.248756e-01	4.989042e-02	0.0	2.252841e-01	4.883663e-02	0.0	2.256905e-01	4.778243e-02	0.0	2.260996e-01	4.672969e-02	0.0	2.265118e-01	4.567861e-02	0.0	2.269237e-01	4.462786e-02	0.0	2.273348e-01	4.357721e-02	0.0	2.277457e-01	4.252697e-02	0.0	2.281565e-01	4.147718e-02	0.0	2.285672e-01	4.042784e-02	0.0	2.289778e-01	3.937894e-02	0.0	2.293883e-01	3.833048e-02	0.0	2.297985e-01	3.728246e-02	0.0	2.302086e-01	3.623489e-02	0.0	2.306185e-01	3.518780e-02	0.0	2.310283e-01	3.414119e-02	0.0	2.314381e-01	3.309511e-02	0.0	2.318477e-01	3.204954e-02	0.0	2.322571e-01	3.100448e-02	0.0	2.326662e-01	2.995985e-02	0.0	2.330748e-01	2.891562e-02	0.0	2.334828e-01	2.787172e-02	0.0	2.338899e-01	2.682814e-02	0.0	2.342967e-01	2.578500e-02	0.0	2.347035e-01	2.474252e-02	0.0	2.351107e-01	2.370082e-02	0.0	2.355173e-01	2.265955e-02	0.0	2.359221e-01	2.161820e-02	0.0	2.363243e-01	2.057652e-02	0.0	2.367255e-01	1.953514e-02	0.0	2.371277e-01	1.849482e-02	0.0	2.375312e-01	1.745565e-02	0.0	2.379326e-01	1.641639e-02	0.0	2.383279e-01	1.537554e-02	0.0	2.387129e-01	1.433153e-02	0.0	2.390890e-01	1.328496e-02	0.0	2.394665e-01	1.223965e-02	0.0	2.398485e-01	1.119671e-02	0.0	2.402264e-01	1.015303e-02	0.0	2.405915e-01	9.105572e-03	0.0	2.409431e-01	8.054255e-03	0.0	2.412846e-01	7.000363e-03	0.0	2.416192e-01	5.945033e-03	0.0	2.419496e-01	4.889170e-03	0.0	2.422742e-01	3.832945e-03	0.0	2.422602e-01	2.732255e-03	0.0	2.419422e-01	1.680078e-03	0.0	2.413341e-01	7.643785e-04	0.0	2.404994e-01	6.567075e-05	0.0	2.399384e-01	-1.854203e-04	0.0	2.393286e-01	-3.867350e-04	0.0	2.386548e-01	-4.395835e-04	0.0	2.379522e-01	-3.792023e-04	0.0	2.372300e-01	-2.149890e-04	0.0	2.365616e-01	1.747354e-04	0.0	2.359167e-01	6.630787e-04	0.0	2.354249e-01	1.353202e-03	0.0	2.349178e-01	2.079569e-03	0.0	2.343947e-01	2.841773e-03	0.0	2.338623e-01	3.645286e-03	0.0	2.333062e-01	4.481493e-03	0.0	2.327249e-01	5.350267e-03	0.0	2.321232e-01	6.255708e-03	0.0	2.315035e-01	7.200159e-03	0.0	2.308540e-01	8.176365e-03	0.0	2.301761e-01	9.185842e-03	0.0	2.294727e-01	1.023072e-02	0.0	2.287393e-01	1.130830e-02	0.0	2.279716e-01	1.241558e-02	0.0	2.271667e-01	1.355016e-02	0.0	2.263294e-01	1.471501e-02	0.0	2.254650e-01	1.591336e-02	0.0	2.245706e-01	1.714238e-02	0.0	2.236306e-01	1.838922e-02	0.0	2.226368e-01	1.964578e-02	0.0	2.216237e-01	2.093732e-02	0.0	2.205754e-01	2.224939e-02	0.0	2.194738e-01	2.356494e-02	0.0	2.183413e-01	2.489972e-02	0.0	2.171928e-01	2.626373e-02	0.0	2.160156e-01	2.764337e-02	0.0	2.147941e-01	2.902177e-02	0.0	2.135287e-01	3.039514e-02	0.0	2.122276e-01	3.176667e-02	0.0	2.109020e-01	3.314275e-02	0.0	2.095663e-01	3.453298e-02	0.0	2.082260e-01	3.593860e-02	0.0	2.068687e-01	3.734316e-02	0.0	2.054855e-01	3.873341e-02	0.0	2.040861e-01	4.011394e-02	0.0	2.026820e-01	4.149165e-02	0.0	2.012786e-01	4.286716e-02	0.0	1.998787e-01	4.423873e-02	0.0	1.984819e-01	4.560131e-02	0.0	1.970869e-01	4.694882e-02	0.0	1.956932e-01	4.827634e-02	0.0	1.943050e-01	4.958369e-02	0.0	1.929321e-01	5.087686e-02	0.0	1.915775e-01	5.215524e-02	0.0	1.902393e-01	5.341279e-02	0.0	1.889153e-01	5.464362e-02	0.0	1.876032e-01	5.584167e-02	0.0	1.863010e-01	5.700123e-02	0.0	1.850101e-01	5.812080e-02	0.0	1.837401e-01	5.920827e-02	0.0	1.825003e-01	6.027217e-02	0.0	1.812953e-01	6.131572e-02	0.0	1.801212e-01	6.233275e-02	0.0	1.789740e-01	6.331689e-02	0.0	1.778504e-01	6.426325e-02	0.0	1.767493e-01	6.516925e-02	0.0	1.756701e-01	6.603310e-02	0.0	1.746129e-01	6.685416e-02	0.0	1.735824e-01	6.763796e-02	0.0	1.725846e-01	6.839231e-02	0.0	1.716242e-01	6.912373e-02	0.0	1.707017e-01	6.983357e-02	0.0	1.698054e-01	7.050686e-02	0.0	1.688616e-01	7.120076e-02	0.0	1.679178e-01	7.189504e-02	0.0	1.669758e-01	7.259179e-02	0.0	1.660316e-01	7.328582e-02	0.0	1.650813e-01	7.397137e-02	0.0	1.641229e-01	7.464572e-02	0.0	1.631581e-01	7.531075e-02	0.0	1.621886e-01	7.596873e-02	0.0	1.612160e-01	7.662184e-02	0.0	1.602416e-01	7.727213e-02	0.0	1.592670e-01	7.792163e-02	0.0	1.582921e-01	7.857036e-02	0.0	1.573151e-01	7.921538e-02	0.0	1.563337e-01	7.985300e-02	0.0	1.553495e-01	8.048577e-02	0.0	1.543679e-01	8.112173e-02	0.0	1.533830e-01	8.175187e-02	0.0	1.523930e-01	8.237309e-02	0.0	1.514034e-01	8.299380e-02	0.0	1.504141e-01	8.361417e-02	0.0	1.494244e-01	8.423267e-02	0.0	1.484336e-01	8.484831e-02	0.0	1.474404e-01	8.545878e-02	0.0	1.464413e-01	8.605822e-02	0.0	1.454344e-01	8.664293e-02	0.0	1.444244e-01	8.722072e-02	0.0	1.434164e-01	8.780022e-02	0.0	1.424082e-01	8.837789e-02	0.0	1.413955e-01	8.894565e-02	0.0	1.403734e-01	8.949448e-02	0.0	1.393386e-01	9.001652e-02	0.0	1.382962e-01	9.052133e-02	0.0	1.372554e-01	9.102686e-02	0.0	1.362109e-01	9.152214e-02	0.0	1.351631e-01	9.200780e-02	0.0	1.341159e-01	9.249182e-02	0.0	1.330567e-01	9.294636e-02	0.0	1.320148e-01	9.343553e-02	0.0	1.310009e-01	9.397835e-02	0.0	1.299865e-01	9.451742e-02	0.0	1.289946e-01	9.509367e-02	0.0	1.280359e-01	9.572161e-02	0.0	1.270951e-01	9.637271e-02	0.0	1.262321e-01	9.712220e-02	0.0	1.254107e-01	9.791150e-02	0.0	1.247290e-01	9.882539e-02	0.0	1.241545e-01	9.980474e-02	0.0	1.238457e-01	1.008975e-01	0.0	1.235755e-01	1.019995e-01	0.0	1.235461e-01	1.027315e-01	0.0	1.235724e-01	1.035154e-01	0.0	1.236680e-01	1.043459e-01	0.0	1.238757e-01	1.052153e-01	0.0	1.241697e-01	1.061192e-01	0.0	1.246764e-01	1.069957e-01	0.0	1.252599e-01	1.078996e-01	0.0	
CELLS 266	798
2	41	42	2	42	43	2	43	44	2	44	45	2	45	46	2	46	47	2	47	48	2	48	49	2	49	50	2	50	51	2	51	52	2	52	53	2	53	54	2	54	55	2	55	56	2	56	57	2	57	58	2	58	59	2	59	60	2	60	61	2	61	62	2	62	63	2	63	64	2	64	65	2	65	66	2	66	67	2	67	68	2	68	69	2	69	70	2	70	71	2	71	72	2	72	73	2	73	74	2	74	75	2	75	76	2	76	77	2	77	78	2	78	79	2	79	80	2	80	81	2	81	82	2	82	83	2	83	84	2	84	85	2	85	86	2	86	87	2	87	88	2	88	89	2	89	90	2	90	91	2	91	92	2	92	93	2	93	94	2	94	95	2	95	96	2	96	97	2	97	98	2	98	99	2	99	100	2	100	101	2	101	102	2	102	103	2	103	104	2	104	105	2	105	106	2	106	107	2	107	108	2	108	109	2	109	110	2	110	111	2	111	112	2	112	113	2	113	114	2	114	115	2	115	116	2	116	117	2	117	118	2	118	119	2	119	120	2	120	121	2	121	122	2	122	123	2	123	124	2	124	125	2	125	126	2	126	127	2	127	128	2	128	129	2	129	130	2	130	131	2	131	132	2	132	133	2	133	134	2	134	135	2	135	136	2	136	137	2	137	138	2	138	139	2	139	140	2	140	141	2	141	142	2	142	143	2	143	144	2	144	145	2	145	146	2	146	147	2	147	148	2	148	149	2	149	150	2	150	151	2	151	152	2	152	153	2	153	154	2	154	155	2	155	156	2	156	157	2	157	158	2	158	159	2	159	160	2	160	161	2	161	162	2	162	163	2	163	164	2	164	165	2	165	166	2	166	167	2	167	168	2	168	169	2	169	170	2	170	171	2	171	172	2	172	173	2	173	174	2	174	175	2	175	176	2	176	177	2	177	178	2	178	179	2	179	180	2	180	181	2	181	182	2	182	183	2	183	184	2	184	185	2	185	186	2	186	187	2	187	188	2	188	189	2	189	190	2	190	191	2	191	192	2	192	193	2	193	194	2	194	195	2	195	196	2	196	197	2	197	198	2	198	199	2	199	200	2	200	201	2	201	202	2	202	203	2	203	204	2	204	205	2	205	206	2	206	207	2	207	208	2	208	209	2	209	210	2	210	211	2	211	212	2	212	213	2	213	214	2	214	215	2	215	216	2	216	217	2	217	218	2	218	219	2	219	220	2	220	221	2	221	222	2	222	223	2	223	224	2	224	225	2	225	226	2	226	227	2	227	228	2	228	229	2	229	230	2	230	231	2	231	232	2	232	233	2	233	234	2	234	235	2	235	236	2	236	237	2	237	238	2	238	239	2	239	240	2	240	241	2	241	242	2	242	243	2	243	244	2	244	245	2	245	246	2	246	247	2	247	248	2	248	249	2	249	250	2	250	251	2	251	252	2	252	253	2	253	254	2	254	255	2	255	256	2	256	257	2	257	258	2	258	259	2	259	260	2	260	261	2	261	262	2	262	263	2	263	264	2	264	265	2	265	19	2	19	20	2	20	25	2	25	28	2	28	29	2	29	30	2	30	31	2	31	32	2	32	33	2	33	36	2	36	37	2	37	38	2	38	39	2	39	35	2	35	34	2	34	27	2	27	26	2	26	24	2	24	23	2	23	22	2	22	21	2	21	18	2	18	17	2	17	16	2	16	15	2	15	14	2	14	13	2	13	12	2	12	11	2	11	10	2	10	9	2	9	8	2	8	7	2	7	6	2	6	5	2	5	4	2	4	3	2	3	2	2	2	1	2	1	40	2	40	0	2	0	41	
CELL_TYPES 266
3	3	3	3	3	3	3	3	3	3	3	3	3	3	3	3	3	3	3	3	3	3	3	3	3	3	3	3	3	3	3	3	3	3	3	3	3	3	3	3	3	3	3	3	3	3	3	3	3	3	3	3	3	3	3	3	3	3	3	3	3	3	3	3	3	3	3	3	3	3	3	3	3	3	3	3	3	3	3	3	3	3	3	3	3	3	3	3	3	3	3	3	3	3	3	3	3	3	3	3	3	3	3	3	3	3	3	3	3	3	3	3	3	3	3	3	3	3	3	3	3	3	3	3	3	3	3	3	3	3	3	3	3	3	3	3	3	3	3	3	3	3	3	3	3	3	3	3	3	3	3	3	3	3	3	3	3	3	3	3	3	3	3	3	3	3	3	3	3	3	3	3	3	3	3	3	3	3	3	3	3	3	3	3	3	3	3	3	3	3	3	3	3	3	3	3	3	3	3	3	3	3	3	3	3	3	3	3	3	3	3	3	3	3	3	3	3	3	3	3	3	3	3	3	3	3	3	3	3	3	3	3	3	3	3	3	3	3	3	3	3	3	3	3	3	3	3	3	3	3	3	3	3	3	3	3	3	3	3	3	3	3	3	3	3	3	
POINT_DATA 266

SCALARS Density float 1
LOOKUP_TABLE default
1.461856e+00	1.523604e+00	1.598597e+00	1.644384e+00	1.644231e+00	1.658048e+00	1.710497e+00	1.781183e+00	1.806812e+00	1.807684e+00	1.842536e+00	1.916626e+00	1.946405e+00	1.963097e+00	2.010372e+00	2.050883e+00	2.064371e+00	2.104462e+00	2.149745e+00	2.589826e+00	2.592446e+00	2.162143e+00	2.192456e+00	2.245757e+00	2.269868e+00	2.578515e+00	2.271679e+00	2.291524e+00	2.558702e+00	2.531375e+00	2.507551e+00	2.488998e+00	2.463589e+00	2.447069e+00	2.327997e+00	2.370477e+00	2.431658e+00	2.418047e+00	2.404541e+00	2.390474e+00	1.469359e+00	1.477615e+00	1.479236e+00	1.440831e+00	1.382404e+00	1.316103e+00	1.272465e+00	1.252808e+00	1.256656e+00	1.261667e+00	1.250310e+00	1.211281e+00	1.168830e+00	1.133449e+00	1.122523e+00	1.137137e+00	1.146494e+00	1.148332e+00	1.122139e+00	1.090552e+00	1.057275e+00	1.034897e+00	1.029858e+00	1.052192e+00	1.080871e+00	1.106026e+00	1.125743e+00	1.146455e+00	1.174635e+00	1.210885e+00	1.247265e+00	1.281994e+00	1.310010e+00	1.334552e+00	1.358980e+00	1.378094e+00	1.393475e+00	1.407131e+00	1.420232e+00	1.433454e+00	1.446889e+00	1.459859e+00	1.472106e+00	1.483665e+00	1.494443e+00	1.504531e+00	1.514039e+00	1.523189e+00	1.532141e+00	1.540946e+00	1.549409e+00	1.557387e+00	1.564959e+00	1.572388e+00	1.579752e+00	1.586770e+00	1.593193e+00	1.599236e+00	1.605008e+00	1.610482e+00	1.615684e+00	1.620661e+00	1.625442e+00	1.630016e+00	1.634375e+00	1.638523e+00	1.642470e+00	1.646224e+00	1.649786e+00	1.653166e+00	1.656364e+00	1.659413e+00	1.662342e+00	1.665185e+00	1.667992e+00	1.670756e+00	1.673401e+00	1.675820e+00	1.678079e+00	1.680420e+00	1.683009e+00	1.685767e+00	1.688311e+00	1.690341e+00	1.692177e+00	1.694382e+00	1.697760e+00	1.702807e+00	1.707827e+00	1.711766e+00	1.715270e+00	1.719833e+00	1.726179e+00	1.733622e+00	1.740747e+00	1.748198e+00	1.743612e+00	1.748792e+00	1.744738e+00	1.786626e+00	1.790576e+00	1.792904e+00	1.766753e+00	1.755113e+00	1.746514e+00	1.694441e+00	1.627690e+00	1.545815e+00	1.638028e+00	1.731183e+00	1.797254e+00	1.862016e+00	1.909740e+00	1.948785e+00	1.988983e+00	2.028895e+00	2.061793e+00	2.092395e+00	2.122683e+00	2.150945e+00	2.175103e+00	2.195820e+00	2.216695e+00	2.240178e+00	2.264358e+00	2.279885e+00	2.292563e+00	2.310802e+00	2.325808e+00	2.335831e+00	2.348741e+00	2.365378e+00	2.381905e+00	2.393977e+00	2.401665e+00	2.407890e+00	2.415889e+00	2.426925e+00	2.440232e+00	2.452284e+00	2.461288e+00	2.469435e+00	2.478415e+00	2.488389e+00	2.499098e+00	2.509820e+00	2.519773e+00	2.528407e+00	2.536586e+00	2.545496e+00	2.555043e+00	2.564325e+00	2.573123e+00	2.580717e+00	2.586450e+00	2.590839e+00	2.595145e+00	2.600542e+00	2.606877e+00	2.613120e+00	2.618924e+00	2.624232e+00	2.628485e+00	2.631548e+00	2.633463e+00	2.634987e+00	2.637111e+00	2.640444e+00	2.643902e+00	2.645708e+00	2.647730e+00	2.650430e+00	2.653335e+00	2.656305e+00	2.658852e+00	2.660735e+00	2.662241e+00	2.663568e+00	2.664975e+00	2.666675e+00	2.668587e+00	2.670672e+00	2.672629e+00	2.674191e+00	2.676008e+00	2.678233e+00	2.679867e+00	2.681436e+00	2.683336e+00	2.685342e+00	2.687429e+00	2.689648e+00	2.691966e+00	2.693668e+00	2.694650e+00	2.696204e+00	2.698130e+00	2.700151e+00	2.702134e+00	2.703456e+00	2.703363e+00	2.703366e+00	2.704128e+00	2.704211e+00	2.704714e+00	2.703444e+00	2.701543e+00	2.703255e+00	2.705080e+00	2.705625e+00	2.709724e+00	2.712444e+00	2.719273e+00	2.725849e+00	2.736911e+00	2.747830e+00	2.768022e+00	2.772510e+00	2.772848e+00	2.755421e+00	2.743479e+00	2.725242e+00	2.703370e+00	2.670016e+00	2.639339e+00	2.614151e+00	
SCALARS X-Momentum float 1
LOOKUP_TABLE default
0.000000e+00	0.000000e+00	0.000000e+00	0.000000e+00	0.000000e+00	0.000000e+00	0.000000e+00	0.000000e+00	0.000000e+00	0.000000e+00	0.000000e+00	0.000000e+00	0.000000e+00	0.000000e+00	0.000000e+00	0.000000e+00	0.000000e+00	0.000000e+00	0.000000e+00	0.000000e+00	0.000000e+00	0.000000e+00	0.000000e+00	0.000000e+00	0.000000e+00	0.000000e+00	0.000000e+00	0.000000e+00	0.000000e+00	0.000000e+00	0.000000e+00	0.000000e+00	0.000000e+00	0.000000e+00	0.000000e+00	0.000000e+00	0.000000e+00	0.000000e+00	0.000000e+00	0.000000e+00	0.000000e+00	0.000000e+00	0.000000e+00	0.000000e+00	0.000000e+00	0.000000e+00	0.000000e+00	0.000000e+00	0.000000e+00	0.000000e+00	0.000000e+00	0.000000e+00	0.000000e+00	0.000000e+00	0.000000e+00	0.000000e+00	0.000000e+00	0.000000e+00	0.000000e+00	0.000000e+00	0.000000e+00	0.000000e+00	0.000000e+00	0.000000e+00	0.000000e+00	0.000000e+00	0.000000e+00	0.000000e+00	0.000000e+00	0.000000e+00	0.000000e+00	0.000000e+00	0.000000e+00	0.000000e+00	0.000000e+00	0.000000e+00	0.000000e+00	0.000000e+00	0.000000e+00	0.000000e+00	0.000000e+00	0.000000e+00	0.000000e+00	0.000000e+00	0.000000e+00	0.000000e+00	0.000000e+00	0.000000e+00	0.000000e+00	0.000000e+00	0.000000e+00	0.000000e+00	0.000000e+00	0.000000e+00	0.000000e+00	0.000000e+00	0.000000e+00	0.000000e+00	0.000000e+00	0.000000e+00	0.000000e+00	0.000000e+00	0.000000e+00	0.000000e+00	0.000000e+00	0.000000e+00	0.000000e+00	0.000000e+00	0.000000e+00	0.000000e+00	0.000000e+00	0.000000e+00	0.000000e+00	0.000000e+00	0.000000e+00	0.000000e+00	0.000000e+00	0.000000e+00	0.000000e+00	0.000000e+00	0.000000e+00	0.000000e+00	0.000000e+00	0.000000e+00	0.000000e+00	0.000000e+00	0.000000e+00	0.000000e+00	0.000000e+00	0.000000e+00	0.000000e+00	0.000000e+00	0.000000e+00	0.000000e+00	0.000000e+00	0.000000e+00	0.000000e+00	0.000000e+00	0.000000e+00	0.000000e+00	0.000000e+00	0.000000e+00	0.000000e+00	0.000000e+00	0.000000e+00	0.000000e+00	0.000000e+00	0.000000e+00	0.000000e+00	0.000000e+00	0.000000e+00	0.000000e+00	0.000000e+00	0.000000e+00	0.000000e+00	0.000000e+00	0.000000e+00	0.000000e+00	0.000000e+00	0.000000e+00	0.000000e+00	0.000000e+00	0.000000e+00	0.000000e+00	0.000000e+00	0.000000e+00	0.000000e+00	0.000000e+00	0.000000e+00	0.000000e+00	0.000000e+00	0.000000e+00	0.000000e+00	0.000000e+00	0.000000e+00	0.000000e+00	0.000000e+00	0.000000e+00	0.000000e+00	0.000000e+00	0.000000e+00	0.000000e+00	0.000000e+00	0.000000e+00	0.000000e+00	0.000000e+00	0.000000e+00	0.000000e+00	0.000000e+00	0.000000e+00	0.000000e+00	0.000000e+00	0.000000e+00	0.000000e+00	0.000000e+00	0.000000e+00	0.000000e+00	0.000000e+00	0.000000e+00	0.000000e+00	0.000000e+00	0.000000e+00	0.000000e+00	0.000000e+00	0.000000e+00	0.000000e+00	0.000000e+00	0.000000e+00	0.000000e+00	0.000000e+00	0.000000e+00	0.000000e+00	0.000000e+00	0.000000e+00	0.000000e+00	0.000000e+00	0.000000e+00	0.000000e+00	0.000000e+00	0.000000e+00	0.000000e+00	0.000000e+00	0.000000e+00	0.000000e+00	0.000000e+00	0.000000e+00	0.000000e+00	0.000000e+00	0.000000e+00	0.000000e+00	0.000000e+00	0.000000e+00	0.000000e+00	0.000000e+00	0.000000e+00	0.000000e+00	0.000000e+00	0.000000e+00	0.000000e+00	0.000000e+00	0.000000e+00	0.000000e+00	0.000000e+00	0.000000e+00	0.000000e+00	0.000000e+00	0.000000e+00	0.000000e+00	0.000000e+00	0.000000e+00	0.000000e+00	0.000000e+00	0.000000e+00	0.000000e+00	0.000000e+00	0.000000e+00	0.000000e+00	0.000000e+00	0.000000e+00	0.000000e+00	0.000000e+00	0.000000e+00	0.000000e+00	0.000000e+00	0.000000e+00	0.000000e+00	
SCALARS Y-Momentum float 1
LOOKUP_TABLE default
0.000000e+00	0.000000e+00	0.000000e+00	0.000000e+00	0.000000e+00	0.000000e+00	0.000000e+00	0.000000e+00	0.000000e+00	0.000000e+00	0.000000e+00	0.000000e+00	0.000000e+00	0.000000e+00	0.000000e+00	0.000000e+00	0.000000e+00	0.000000e+00	0.000000e+00	0.000000e+00	0.000000e+00	0.000000e+00	0.000000e+00	0.000000e+00	0.000000e+00	0.000000e+00	0.000000e+00	0.000000e+00	0.000000e+00	0.000000e+00	0.000000e+00	0.000000e+00	0.000000e+00	0.000000e+00	0.000000e+00	0.000000e+00	0.000000e+00	0.000000e+00	0.000000e+00	0.000000e+00	0.000000e+00	0.000000e+00	0.000000e+00	0.000000e+00	0.000000e+00	0.000000e+00	0.000000e+00	0.000000e+00	0.000000e+00	0.000000e+00	0.000000e+00	0.000000e+00	0.000000e+00	0.000000e+00	0.000000e+00	0.000000e+00	0.000000e+00	0.000000e+00	0.000000e+00	0.000000e+00	0.000000e+00	0.000000e+00	0.000000e+00	0.000000e+00	0.000000e+00	0.000000e+00	0.000000e+00	0.000000e+00	0.000000e+00	0.000000e+00	0.000000e+00	0.000000e+00	0.000000e+00	0.000000e+00	0.000000e+00	0.000000e+00	0.000000e+00	0.000000e+00	0.000000e+00	0.000000e+00	0.000000e+00	0.000000e+00	0.000000e+00	0.000000e+00	0.000000e+00	0.000000e+00	0.000000e+00	0.000000e+00	0.000000e+00	0.000000e+00	0.000000e+00	0.000000e+00	0.000000e+00	0.000000e+00	0.000000e+00	0.000000e+00	0.000000e+00	0.000000e+00	0.000000e+00	0.000000e+00	0.000000e+00	0.000000e+00	0.000000e+00	0.000000e+00	0.000000e+00	0.000000e+00	0.000000e+00	0.000000e+00	0.000000e+00	0.000000e+00	0.000000e+00	0.000000e+00	0.000000e+00	0.000000e+00	0.000000e+00	0.000000e+00	0.000000e+00	0.000000e+00	0.000000e+00	0.000000e+00	0.000000e+00	0.000000e+00	0.000000e+00	0.000000e+00	0.000000e+00	0.000000e+00	0.000000e+00	0.000000e+00	0.000000e+00	0.000000e+00	0.000000e+00	0.000000e+00	0.000000e+00	0.000000e+00	0.000000e+00	0.000000e+00	0.000000e+00	0.000000e+00	0.000000e+00	0.000000e+00	0.000000e+00	0.000000e+00	0.000000e+00	0.000000e+00	0.000000e+00	0.000000e+00	0.000000e+00	0.000000e+00	0.000000e+00	0.000000e+00	0.000000e+00	0.000000e+00	0.000000e+00	0.000000e+00	0.000000e+00	0.000000e+00	0.000000e+00	0.000000e+00	0.000000e+00	0.000000e+00	0.000000e+00	0.000000e+00	0.000000e+00	0.000000e+00	0.000000e+00	0.000000e+00	0.000000e+00	0.000000e+00	0.000000e+00	0.000000e+00	0.000000e+00	0.000000e+00	0.000000e+00	0.000000e+00	0.000000e+00	0.000000e+00	0.000000e+00	0.000000e+00	0.000000e+00	0.000000e+00	0.000000e+00	0.000000e+00	0.000000e+00	0.000000e+00	0.000000e+00	0.000000e+00	0.000000e+00	0.000000e+00	0.000000e+00	0.000000e+00	0.000000e+00	0.000000e+00	0.000000e+00	0.000000e+00	0.000000e+00	0.000000e+00	0.000000e+00	0.000000e+00	0.000000e+00	0.000000e+00	0.000000e+00	0.000000e+00	0.000000e+00	0.000000e+00	0.000000e+00	0.000000e+00	0.000000e+00	0.000000e+00	0.000000e+00	0.000000e+00	0.000000e+00	0.000000e+00	0.000000e+00	0.000000e+00	0.000000e+00	0.000000e+00	0.000000e+00	0.000000e+00	0.000000e+00	0.000000e+00	0.000000e+00	0.000000e+00	0.000000e+00	0.000000e+00	0.000000e+00	0.000000e+00	0.000000e+00	0.000000e+00	0.000000e+00	0.000000e+00	0.000000e+00	0.000000e+00	0.000000e+00	0.000000e+00	0.000000e+00	0.000000e+00	0.000000e+00	0.000000e+00	0.000000e+00	0.000000e+00	0.000000e+00	0.000000e+00	0.000000e+00	0.000000e+00	0.000000e+00	0.000000e+00	0.000000e+00	0.000000e+00	0.000000e+00	0.000000e+00	0.000000e+00	0.000000e+00	0.000000e+00	0.000000e+00	0.000000e+00	0.000000e+00	0.000000e+00	0.000000e+00	0.000000e+00	0.000000e+00	0.000000e+00	0.000000e+00	0.000000e+00	0.000000e+00	0.000000e+00	0.000000e+00	
SCALARS Energy float 1
LOOKUP_TABLE default
1.955166e+06	2.039948e+06	2.146861e+06	2.207267e+06	2.205695e+06	2.223162e+06	2.297396e+06	2.397106e+06	2.430529e+06	2.429106e+06	2.476366e+06	2.583419e+06	2.620415e+06	2.641766e+06	2.710745e+06	2.766564e+06	2.783131e+06	2.839446e+06	2.902963e+06	3.508141e+06	3.515287e+06	2.918174e+06	2.959659e+06	3.036864e+06	3.066913e+06	3.495382e+06	3.068553e+06	3.096186e+06	3.468375e+06	3.428333e+06	3.395169e+06	3.370456e+06	3.334221e+06	3.311697e+06	3.147776e+06	3.208402e+06	3.290825e+06	3.271787e+06	3.253299e+06	3.234970e+06	1.966543e+06	1.978742e+06	1.982396e+06	1.929006e+06	1.849506e+06	1.757544e+06	1.697292e+06	1.671700e+06	1.676823e+06	1.684980e+06	1.670244e+06	1.616353e+06	1.557191e+06	1.510080e+06	1.493672e+06	1.515641e+06	1.528500e+06	1.532168e+06	1.495660e+06	1.452608e+06	1.406552e+06	1.376649e+06	1.369446e+06	1.401360e+06	1.440676e+06	1.475199e+06	1.502104e+06	1.530438e+06	1.569352e+06	1.619356e+06	1.669106e+06	1.716818e+06	1.754677e+06	1.787389e+06	1.820932e+06	1.846685e+06	1.867393e+06	1.885802e+06	1.903437e+06	1.921286e+06	1.939533e+06	1.957102e+06	1.973701e+06	1.989360e+06	2.003958e+06	2.017644e+06	2.030565e+06	2.042985e+06	2.055116e+06	2.067037e+06	2.078510e+06	2.089359e+06	2.099689e+06	2.109815e+06	2.119780e+06	2.129302e+06	2.138081e+06	2.146338e+06	2.154213e+06	2.161689e+06	2.168802e+06	2.175613e+06	2.182164e+06	2.188437e+06	2.194423e+06	2.200123e+06	2.205552e+06	2.210720e+06	2.215627e+06	2.220289e+06	2.224706e+06	2.228922e+06	2.232978e+06	2.236922e+06	2.240813e+06	2.244638e+06	2.248290e+06	2.251666e+06	2.254854e+06	2.258099e+06	2.261700e+06	2.265520e+06	2.269022e+06	2.271915e+06	2.274466e+06	2.277522e+06	2.282347e+06	2.289310e+06	2.296147e+06	2.301630e+06	2.306329e+06	2.312695e+06	2.321675e+06	2.331963e+06	2.341772e+06	2.351828e+06	2.343608e+06	2.355286e+06	2.353883e+06	2.416193e+06	2.423898e+06	2.430043e+06	2.390399e+06	2.374181e+06	2.361966e+06	2.299721e+06	2.197116e+06	2.058220e+06	2.203346e+06	2.325028e+06	2.416634e+06	2.504735e+06	2.570565e+06	2.624827e+06	2.680416e+06	2.734872e+06	2.780756e+06	2.823241e+06	2.864786e+06	2.904131e+06	2.937894e+06	2.966353e+06	2.995193e+06	3.027631e+06	3.061566e+06	3.082732e+06	3.099983e+06	3.125154e+06	3.146543e+06	3.159674e+06	3.177764e+06	3.200516e+06	3.224074e+06	3.240834e+06	3.250969e+06	3.259299e+06	3.270696e+06	3.285839e+06	3.303936e+06	3.321085e+06	3.333395e+06	3.344496e+06	3.356907e+06	3.370749e+06	3.385473e+06	3.400529e+06	3.414426e+06	3.426312e+06	3.437517e+06	3.449789e+06	3.462849e+06	3.475928e+06	3.488467e+06	3.499137e+06	3.506945e+06	3.512744e+06	3.518747e+06	3.526170e+06	3.534792e+06	3.543435e+06	3.551883e+06	3.559402e+06	3.565381e+06	3.569580e+06	3.571924e+06	3.573951e+06	3.577104e+06	3.581688e+06	3.586316e+06	3.588895e+06	3.591733e+06	3.595465e+06	3.599432e+06	3.603674e+06	3.607304e+06	3.609908e+06	3.611904e+06	3.613722e+06	3.615631e+06	3.618020e+06	3.620714e+06	3.623678e+06	3.626413e+06	3.628510e+06	3.631046e+06	3.634071e+06	3.636387e+06	3.638554e+06	3.641210e+06	3.643979e+06	3.646917e+06	3.650115e+06	3.653457e+06	3.655837e+06	3.657030e+06	3.659192e+06	3.661830e+06	3.664690e+06	3.667733e+06	3.669660e+06	3.669242e+06	3.669273e+06	3.670373e+06	3.670489e+06	3.671257e+06	3.669430e+06	3.667093e+06	3.669138e+06	3.671757e+06	3.672446e+06	3.678108e+06	3.681729e+06	3.690937e+06	3.700651e+06	3.716416e+06	3.733285e+06	3.765230e+06	3.766267e+06	3.770207e+06	3.743547e+06	3.727326e+06	3.701363e+06	3.671205e+06	3.621885e+06	3.580478e+06	3.539585e+06	
SCALARS TKE float 1
LOOKUP_TABLE default
1.000000e-10	1.000000e-10	1.000000e-10	1.000000e-10	1.000000e-10	1.000000e-10	1.000000e-10	1.000000e-10	1.000000e-10	1.000000e-10	1.000000e-10	1.000000e-10	1.000000e-10	1.000000e-10	1.000000e-10	1.000000e-10	1.000000e-10	1.000000e-10	1.000000e-10	1.000000e-10	1.000000e-10	1.000000e-10	1.000000e-10	1.000000e-10	1.000000e-10	1.000000e-10	1.000000e-10	1.000000e-10	1.000000e-10	1.000000e-10	1.000000e-10	1.000000e-10	1.000000e-10	1.000000e-10	1.000000e-10	1.000000e-10	1.000000e-10	1.000000e-10	1.000000e-10	1.000000e-10	1.000000e-10	1.000000e-10	1.000000e-10	1.000000e-10	1.000000e-10	1.000000e-10	1.000000e-10	1.000000e-10	1.000000e-10	1.000000e-10	1.000000e-10	1.000000e-10	1.000000e-10	1.000000e-10	1.000000e-10	1.000000e-10	1.000000e-10	1.000000e-10	1.000000e-10	1.000000e-10	1.000000e-10	1.000000e-10	1.000000e-10	1.000000e-10	1.000000e-10	1.000000e-10	1.000000e-10	1.000000e-10	1.000000e-10	1.000000e-10	1.000000e-10	1.000000e-10	1.000000e-10	1.000000e-10	1.000000e-10	1.000000e-10	1.000000e-10	1.000000e-10	1.000000e-10	1.000000e-10	1.000000e-10	1.000000e-10	1.000000e-10	1.000000e-10	1.000000e-10	1.000000e-10	1.000000e-10	1.000000e-10	1.000000e-10	1.000000e-10	1.000000e-10	1.000000e-10	1.000000e-10	1.000000e-10	1.000000e-10	1.000000e-10	1.000000e-10	1.000000e-10	1.000000e-10	1.000000e-10	1.000000e-10	1.000000e-10	1.000000e-10	1.000000e-10	1.000000e-10	1.000000e-10	1.000000e-10	1.000000e-10	1.000000e-10	1.000000e-10	1.000000e-10	1.000000e-10	1.000000e-10	1.000000e-10	1.000000e-10	1.000000e-10	1.000000e-10	1.000000e-10	1.000000e-10	1.000000e-10	1.000000e-10	1.000000e-10	1.000000e-10	1.000000e-10	1.000000e-10	1.000000e-10	1.000000e-10	1.000000e-10	1.000000e-10	1.000000e-10	1.000000e-10	1.000000e-10	1.000000e-10	1.000000e-10	1.000000e-10	1.000000e-10	1.000000e-10	1.000000e-10	1.000000e-10	1.000000e-10	1.000000e-10	1.000000e-10	1.000000e-10	1.000000e-10	1.000000e-10	1.000000e-10	1.000000e-10	1.000000e-10	1.000000e-10	1.000000e-10	1.000000e-10	1.000000e-10	1.000000e-10	1.000000e-10	1.000000e-10	1.000000e-10	1.000000e-10	1.000000e-10	1.000000e-10	1.000000e-10	1.000000e-10	1.000000e-10	1.000000e-10	1.000000e-10	1.000000e-10	1.000000e-10	1.000000e-10	1.000000e-10	1.000000e-10	1.000000e-10	1.000000e-10	1.000000e-10	1.000000e-10	1.000000e-10	1.000000e-10	1.000000e-10	1.000000e-10	1.000000e-10	1.000000e-10	1.000000e-10	1.000000e-10	1.000000e-10	1.000000e-10	1.000000e-10	1.000000e-10	1.000000e-10	1.000000e-10	1.000000e-10	1.000000e-10	1.000000e-10	1.000000e-10	1.000000e-10	1.000000e-10	1.000000e-10	1.000000e-10	1.000000e-10	1.000000e-10	1.000000e-10	1.000000e-10	1.000000e-10	1.000000e-10	1.000000e-10	1.000000e-10	1.000000e-10	1.000000e-10	1.000000e-10	1.000000e-10	1.000000e-10	1.000000e-10	1.000000e-10	1.000000e-10	1.000000e-10	1.000000e-10	1.000000e-10	1.000000e-10	1.000000e-10	1.000000e-10	1.000000e-10	1.000000e-10	1.000000e-10	1.000000e-10	1.000000e-10	1.000000e-10	1.000000e-10	1.000000e-10	1.000000e-10	1.000000e-10	1.000000e-10	1.000000e-10	1.000000e-10	1.000000e-10	1.000000e-10	1.000000e-10	1.000000e-10	1.000000e-10	1.000000e-10	1.000000e-10	1.000000e-10	1.000000e-10	1.000000e-10	1.000000e-10	1.000000e-10	1.000000e-10	1.000000e-10	1.000000e-10	1.000000e-10	1.000000e-10	1.000000e-10	1.000000e-10	1.000000e-10	1.000000e-10	1.000000e-10	1.000000e-10	1.000000e-10	1.000000e-10	1.000000e-10	1.000000e-10	1.000000e-10	1.000000e-10	1.000000e-10	1.000000e-10	1.000000e-10	1.000000e-10	1.000000e-10	1.000000e-10	1.000000e-10	
SCALARS Omega float 1
LOOKUP_TABLE default