# vtk DataFile Version 3.0
vtk output
ASCII
DATASET UNSTRUCTURED_GRID
POINTS 324 float
3.085804e-01	-3.230213e-03	0.0	3.089526e-01	-2.604522e-03	0.0	3.492715e-01	5.209667e-03	0.0	3.095147e-01	-1.961682e-03	0.0	3.476966e-01	4.400654e-03	0.0	3.101596e-01	-1.396191e-03	0.0	3.109480e-01	-1.059579e-03	0.0	3.117682e-01	-7.994838e-04	0.0	3.126276e-01	-7.984141e-04	0.0	3.134890e-01	-8.638602e-04	0.0	3.143517e-01	-9.256926e-04	0.0	3.152157e-01	-9.854075e-04	0.0	3.469004e-01	4.013196e-03	0.0	3.160808e-01	-1.043356e-03	0.0	3.461063e-01	3.621450e-03	0.0	3.453074e-01	3.239690e-03	0.0	3.444980e-01	2.880663e-03	0.0	3.169474e-01	-1.093644e-03	0.0	3.436813e-01	2.538755e-03	0.0	3.178151e-01	-1.141949e-03	0.0	3.428659e-01	2.193951e-03	0.0	3.420457e-01	1.861087e-03	0.0	3.186839e-01	-1.187218e-03	0.0	3.412151e-01	1.555801e-03	0.0	3.403773e-01	1.271143e-03	0.0	3.395409e-01	9.828459e-04	0.0	3.387002e-01	7.085158e-04	0.0	3.378498e-01	4.667364e-04	0.0	3.195542e-01	-1.220909e-03	0.0	3.369925e-01	2.518513e-04	0.0	3.361364e-01	3.350940e-05	0.0	3.352778e-01	-1.730286e-04	0.0	3.344121e-01	-3.452022e-04	0.0	3.335416e-01	-4.895788e-04	0.0	3.326712e-01	-6.311072e-04	0.0	3.318010e-01	-7.718520e-04	0.0	3.204255e-01	-1.250547e-03	0.0	3.309276e-01	-8.860647e-04	0.0	3.300515e-01	-9.725823e-04	0.0	3.291748e-01	-1.047109e-03	0.0	3.282993e-01	-1.128879e-03	0.0	3.274245e-01	-1.210247e-03	0.0	3.265490e-01	-1.276510e-03	0.0	3.212979e-01	-1.271940e-03	0.0	3.221712e-01	-1.293108e-03	0.0	3.230453e-01	-1.314082e-03	0.0	3.239203e-01	-1.328909e-03	0.0	3.247961e-01	-1.331615e-03	0.0	3.256726e-01	-1.316176e-03	0.0	3.083361e-01	-3.913094e-03	0.0	3.484891e-01	4.795396e-03	0.0	3.500443e-01	5.641354e-03	0.0	3.505637e-01	5.940783e-03	0.0	3.510818e-01	6.242514e-03	0.0	3.516005e-01	6.543308e-03	0.0	3.521204e-01	6.842176e-03	0.0	3.526394e-01	7.142492e-03	0.0	3.531554e-01	7.448047e-03	0.0	3.536673e-01	7.760462e-03	0.0	3.541757e-01	8.078652e-03	0.0	3.546812e-01	8.401356e-03	0.0	3.551850e-01	8.726799e-03	0.0	3.556884e-01	9.052778e-03	0.0	3.561926e-01	9.377406e-03	0.0	3.566970e-01	9.701935e-03	0.0	3.571994e-01	1.002937e-02	0.0	3.576988e-01	1.036143e-02	0.0	3.581956e-01	1.069725e-02	0.0	3.586906e-01	1.103562e-02	0.0	3.591848e-01	1.137519e-02	0.0	3.596791e-01	1.171455e-02	0.0	3.601738e-01	1.205311e-02	0.0	3.606683e-01	1.239196e-02	0.0	3.611617e-01	1.273236e-02	0.0	3.616532e-01	1.307533e-02	0.0	3.621427e-01	1.342115e-02	0.0	3.626299e-01	1.376992e-02	0.0	3.631150e-01	1.412154e-02	0.0	3.635988e-01	1.447491e-02	0.0	3.640822e-01	1.482856e-02	0.0	3.645663e-01	1.518121e-02	0.0	3.650508e-01	1.553303e-02	0.0	3.655351e-01	1.588498e-02	0.0	3.660186e-01	1.623800e-02	0.0	3.665004e-01	1.659304e-02	0.0	3.669800e-01	1.695083e-02	0.0	3.674573e-01	1.731157e-02	0.0	3.679320e-01	1.767539e-02	0.0	3.684042e-01	1.804240e-02	0.0	3.688736e-01	1.841269e-02	0.0	3.693407e-01	1.878566e-02	0.0	3.698063e-01	1.916020e-02	0.0	3.702714e-01	1.953521e-02	0.0	3.707369e-01	1.990957e-02	0.0	3.712032e-01	2.028254e-02	0.0	3.716699e-01	2.065485e-02	0.0	3.721360e-01	2.102757e-02	0.0	3.726007e-01	2.140178e-02	0.0	3.730631e-01	2.177851e-02	0.0	3.735228e-01	2.215833e-02	0.0	3.739796e-01	2.254132e-02	0.0	3.744334e-01	2.292759e-02	0.0	3.748840e-01	2.331720e-02	0.0	3.753316e-01	2.371001e-02	0.0	3.757771e-01	2.410498e-02	0.0	3.762213e-01	2.450094e-02	0.0	3.766655e-01	2.489671e-02	0.0	3.771105e-01	2.529122e-02	0.0	3.775554e-01	2.568542e-02	0.0	3.779981e-01	2.608187e-02	0.0	3.784375e-01	2.648149e-02	0.0	3.788740e-01	2.688399e-02	0.0	3.793093e-01	2.728748e-02	0.0	3.797452e-01	2.768994e-02	0.0	3.801809e-01	2.809223e-02	0.0	3.806148e-01	2.849608e-02	0.0	3.810456e-01	2.890280e-02	0.0	3.814733e-01	2.931248e-02	0.0	3.818978e-01	2.972501e-02	0.0	3.823199e-01	3.013972e-02	0.0	3.827409e-01	3.055504e-02	0.0	3.831625e-01	3.096943e-02	0.0	3.835847e-01	3.138273e-02	0.0	3.840066e-01	3.179598e-02	0.0	3.844271e-01	3.221022e-02	0.0	3.848451e-01	3.262651e-02	0.0	3.852599e-01	3.304552e-02	0.0	3.856716e-01	3.346721e-02	0.0	3.860802e-01	3.389150e-02	0.0	3.864856e-01	3.431827e-02	0.0	3.868883e-01	3.474732e-02	0.0	3.872888e-01	3.517786e-02	0.0	3.876882e-01	3.560898e-02	0.0	3.880875e-01	3.603977e-02	0.0	3.884875e-01	3.646937e-02	0.0	3.888881e-01	3.689801e-02	0.0	3.892881e-01	3.732663e-02	0.0	3.896867e-01	3.775620e-02	0.0	3.900826e-01	3.818768e-02	0.0	3.904754e-01	3.862152e-02	0.0	3.908652e-01	3.905758e-02	0.0	3.912521e-01	3.949567e-02	0.0	3.916363e-01	3.993562e-02	0.0	3.920181e-01	4.037717e-02	0.0	3.923980e-01	4.081987e-02	0.0	3.927765e-01	4.126324e-02	0.0	3.931543e-01	4.170701e-02	0.0	3.935849e-01	4.208953e-02	0.0	3.941278e-01	4.229537e-02	0.0	3.947040e-01	4.232142e-02	0.0	3.952414e-01	4.210361e-02	0.0	3.957366e-01	4.165683e-02	0.0	3.960041e-01	4.105694e-02	0.0	3.960432e-01	4.038936e-02	0.0	3.957582e-01	3.978330e-02	0.0	3.954517e-01	3.918439e-02	0.0	3.951172e-01	3.860033e-02	0.0	3.947718e-01	3.802233e-02	0.0	3.944288e-01	3.744266e-02	0.0	3.940753e-01	3.686905e-02	0.0	3.937058e-01	3.630534e-02	0.0	3.933294e-01	3.574593e-02	0.0	3.929527e-01	3.518647e-02	0.0	3.925764e-01	3.462648e-02	0.0	3.921933e-01	3.407094e-02	0.0	3.918060e-01	3.351797e-02	0.0	3.914216e-01	3.296284e-02	0.0	3.910376e-01	3.240710e-02	0.0	3.906531e-01	3.185160e-02	0.0	3.902689e-01	3.129564e-02	0.0	3.898861e-01	3.073847e-02	0.0	3.895048e-01	3.018008e-02	0.0	3.891242e-01	2.962103e-02	0.0	3.887436e-01	2.906182e-02	0.0	3.883628e-01	2.850254e-02	0.0	3.879818e-01	2.794325e-02	0.0	3.876008e-01	2.738379e-02	0.0	3.872202e-01	2.682392e-02	0.0	3.868400e-01	2.626362e-02	0.0	3.864595e-01	2.570334e-02	0.0	3.860783e-01	2.514349e-02	0.0	3.856963e-01	2.458394e-02	0.0	3.853143e-01	2.402435e-02	0.0	3.849324e-01	2.346457e-02	0.0	3.845505e-01	2.290465e-02	0.0	3.841687e-01	2.234461e-02	0.0	3.837868e-01	2.178450e-02	0.0	3.834044e-01	2.122460e-02	0.0	3.830209e-01	2.066543e-02	0.0	3.826354e-01	2.010755e-02	0.0	3.822472e-01	1.955150e-02	0.0	3.818563e-01	1.899729e-02	0.0	3.814637e-01	1.844420e-02	0.0	3.810706e-01	1.789143e-02	0.0	3.806781e-01	1.733822e-02	0.0	3.802864e-01	1.678436e-02	0.0	3.798946e-01	1.623061e-02	0.0	3.795014e-01	1.567777e-02	0.0	3.791060e-01	1.512656e-02	0.0	3.787075e-01	1.457756e-02	0.0	3.783051e-01	1.403133e-02	0.0	3.778993e-01	1.348775e-02	0.0	3.774917e-01	1.294545e-02	0.0	3.770845e-01	1.240292e-02	0.0	3.766786e-01	1.185945e-02	0.0	3.762731e-01	1.131572e-02	0.0	3.758669e-01	1.077254e-02	0.0	3.754589e-01	1.023076e-02	0.0	3.750481e-01	9.691202e-03	0.0	3.746336e-01	9.154567e-03	0.0	3.742145e-01	8.621531e-03	0.0	3.737901e-01	8.092786e-03	0.0	3.733598e-01	7.569026e-03	0.0	3.729239e-01	7.049953e-03	0.0	3.724845e-01	6.533896e-03	0.0	3.720439e-01	6.019046e-03	0.0	3.716041e-01	5.503582e-03	0.0	3.711665e-01	4.986414e-03	0.0	3.707284e-01	4.469844e-03	0.0	3.702861e-01	3.956989e-03	0.0	3.698379e-01	3.449392e-03	0.0	3.693834e-01	2.947656e-03	0.0	3.689248e-01	2.449865e-03	0.0	3.684664e-01	1.951943e-03	0.0	3.680095e-01	1.452949e-03	0.0	3.675499e-01	9.565835e-04	0.0	3.670845e-01	4.659658e-04	0.0	3.666122e-01	-1.784669e-05	0.0	3.661336e-01	-4.952477e-04	0.0	3.656532e-01	-9.705890e-04	0.0	3.651745e-01	-1.447378e-03	0.0	3.646928e-01	-1.920808e-03	0.0	3.642040e-01	-2.386786e-03	0.0	3.637098e-01	-2.846603e-03	0.0	3.632161e-01	-3.306775e-03	0.0	3.627206e-01	-3.764582e-03	0.0	3.622181e-01	-4.214493e-03	0.0	3.617094e-01	-4.657001e-03	0.0	3.612008e-01	-5.099338e-03	0.0	3.606927e-01	-5.541840e-03	0.0	3.601798e-01	-5.978494e-03	0.0	3.596596e-01	-6.406048e-03	0.0	3.591319e-01	-6.823864e-03	0.0	3.585997e-01	-7.235503e-03	0.0	3.580685e-01	-7.647979e-03	0.0	3.575381e-01	-8.061233e-03	0.0	3.570034e-01	-8.468280e-03	0.0	3.564613e-01	-8.865139e-03	0.0	3.558462e-01	-9.296533e-03	0.0	3.552260e-01	-9.720815e-03	0.0	3.546077e-01	-1.014782e-02	0.0	3.539899e-01	-1.057572e-02	0.0	3.533677e-01	-1.099729e-02	0.0	3.527373e-01	-1.140643e-02	0.0	3.520973e-01	-1.180049e-02	0.0	3.514471e-01	-1.217751e-02	0.0	3.507891e-01	-1.254059e-02	0.0	3.501287e-01	-1.289942e-02	0.0	3.494709e-01	-1.326294e-02	0.0	3.488141e-01	-1.362821e-02	0.0	3.481530e-01	-1.398570e-02	0.0	3.474837e-01	-1.432725e-02	0.0	3.468049e-01	-1.464935e-02	0.0	3.461162e-01	-1.494947e-02	0.0	3.454202e-01	-1.523238e-02	0.0	3.447227e-01	-1.551103e-02	0.0	3.440278e-01	-1.579619e-02	0.0	3.433332e-01	-1.608136e-02	0.0	3.426333e-01	-1.635326e-02	0.0	3.419253e-01	-1.660284e-02	0.0	3.412089e-01	-1.682658e-02	0.0	3.404850e-01	-1.702427e-02	0.0	3.397580e-01	-1.720959e-02	0.0	3.390323e-01	-1.739950e-02	0.0	3.383080e-01	-1.759389e-02	0.0	3.375808e-01	-1.777635e-02	0.0	3.368479e-01	-1.793316e-02	0.0	3.361094e-01	-1.805972e-02	0.0	3.353663e-01	-1.815450e-02	0.0	3.346213e-01	-1.823091e-02	0.0	3.338768e-01	-1.830991e-02	0.0	3.331331e-01	-1.839468e-02	0.0	3.323881e-01	-1.846271e-02	0.0	3.316411e-01	-1.849889e-02	0.0	3.308935e-01	-1.850123e-02	0.0	3.301464e-01	-1.848006e-02	0.0	3.293995e-01	-1.846009e-02	0.0	3.286529e-01	-1.844482e-02	0.0	3.279072e-01	-1.841066e-02	0.0	3.271642e-01	-1.834286e-02	0.0	3.264256e-01	-1.823925e-02	0.0	3.256910e-01	-1.811200e-02	0.0	3.249563e-01	-1.798743e-02	0.0	3.242212e-01	-1.786757e-02	0.0	3.234899e-01	-1.772845e-02	0.0	3.227665e-01	-1.755449e-02	0.0	3.220536e-01	-1.734303e-02	0.0	3.213504e-01	-1.710210e-02	0.0	3.206490e-01	-1.685733e-02	0.0	3.199448e-01	-1.662183e-02	0.0	3.192454e-01	-1.637375e-02	0.0	3.185593e-01	-1.609226e-02	0.0	3.178902e-01	-1.577352e-02	0.0	3.172381e-01	-1.542217e-02	0.0	3.165914e-01	-1.506178e-02	0.0	3.159437e-01	-1.470419e-02	0.0	3.153142e-01	-1.431650e-02	0.0	3.146902e-01	-1.392078e-02	0.0	3.140682e-01	-1.352281e-02	0.0	3.134652e-01	-1.309771e-02	0.0	3.128945e-01	-1.263095e-02	0.0	3.123623e-01	-1.212149e-02	0.0	3.118408e-01	-1.160155e-02	0.0	3.113118e-01	-1.109011e-02	0.0	3.108081e-01	-1.055470e-02	0.0	3.103577e-01	-9.974589e-03	0.0	3.099574e-01	-9.359202e-03	0.0	3.095563e-01	-8.745006e-03	0.0	3.091991e-01	-8.105295e-03	0.0	3.088775e-01	-7.447271e-03	0.0	3.085931e-01	-6.773398e-03	0.0	3.083583e-01	-6.080923e-03	0.0	3.082394e-01	-5.362770e-03	0.0	3.082284e-01	-4.634417e-03	0.0	
CELLS 324	972
2	51	52	2	52	53	2	53	54	2	54	55	2	55	56	2	56	57	2	57	58	2	58	59	2	59	60	2	60	61	2	61	62	2	62	63	2	63	64	2	64	65	2	65	66	2	66	67	2	67	68	2	68	69	2	69	70	2	70	71	2	71	72	2	72	73	2	73	74	2	74	75	2	75	76	2	76	77	2	77	78	2	78	79	2	79	80	2	80	81	2	81	82	2	82	83	2	83	84	2	84	85	2	85	86	2	86	87	2	87	88	2	88	89	2	89	90	2	90	91	2	91	92	2	92	93	2	93	94	2	94	95	2	95	96	2	96	97	2	97	98	2	98	99	2	99	100	2	100	101	2	101	102	2	102	103	2	103	104	2	104	105	2	105	106	2	106	107	2	107	108	2	108	109	2	109	110	2	110	111	2	111	112	2	112	113	2	113	114	2	114	115	2	115	116	2	116	117	2	117	118	2	118	119	2	119	120	2	120	121	2	121	122	2	122	123	2	123	124	2	124	125	2	125	126	2	126	127	2	127	128	2	128	129	2	129	130	2	130	131	2	131	132	2	132	133	2	133	134	2	134	135	2	135	136	2	136	137	2	137	138	2	138	139	2	139	140	2	140	141	2	141	142	2	142	143	2	143	144	2	144	145	2	145	146	2	146	147	2	147	148	2	148	149	2	149	150	2	150	151	2	151	152	2	152	153	2	153	154	2	154	155	2	155	156	2	156	157	2	157	158	2	158	159	2	159	160	2	160	161	2	161	162	2	162	163	2	163	164	2	164	165	2	165	166	2	166	167	2	167	168	2	168	169	2	169	170	2	170	171	2	171	172	2	172	173	2	173	174	2	174	175	2	175	176	2	176	177	2	177	178	2	178	179	2	179	180	2	180	181	2	181	182	2	182	183	2	183	184	2	184	185	2	185	186	2	186	187	2	187	188	2	188	189	2	189	190	2	190	191	2	191	192	2	192	193	2	193	194	2	194	195	2	195	196	2	196	197	2	197	198	2	198	199	2	199	200	2	200	201	2	201	202	2	202	203	2	203	204	2	204	205	2	205	206	2	206	207	2	207	208	2	208	209	2	209	210	2	210	211	2	211	212	2	212	213	2	213	214	2	214	215	2	215	216	2	216	217	2	217	218	2	218	219	2	219	220	2	220	221	2	221	222	2	222	223	2	223	224	2	224	225	2	225	226	2	226	227	2	227	228	2	228	229	2	229	230	2	230	231	2	231	232	2	232	233	2	233	234	2	234	235	2	235	236	2	236	237	2	237	238	2	238	239	2	239	240	2	240	241	2	241	242	2	242	243	2	243	244	2	244	245	2	245	246	2	246	247	2	247	248	2	248	249	2	249	250	2	250	251	2	251	252	2	252	253	2	253	254	2	254	255	2	255	256	2	256	257	2	257	258	2	258	259	2	259	260	2	260	261	2	261	262	2	262	263	2	263	264	2	264	265	2	265	266	2	266	267	2	267	268	2	268	269	2	269	270	2	270	271	2	271	272	2	272	273	2	273	274	2	274	275	2	275	276	2	276	277	2	277	278	2	278	279	2	279	280	2	280	281	2	281	282	2	282	283	2	283	284	2	284	285	2	285	286	2	286	287	2	287	288	2	288	289	2	289	290	2	290	291	2	291	292	2	292	293	2	293	294	2	294	295	2	295	296	2	296	297	2	297	298	2	298	299	2	299	300	2	300	301	2	301	302	2	302	303	2	303	304	2	304	305	2	305	306	2	306	307	2	307	308	2	308	309	2	309	310	2	310	311	2	311	312	2	312	313	2	313	314	2	314	315	2	315	316	2	316	317	2	317	318	2	318	319	2	319	320	2	320	321	2	321	322	2	322	323	2	323	49	2	49	0	2	0	1	2	1	3	2	3	5	2	5	6	2	6	7	2	7	8	2	8	9	2	9	10	2	10	11	2	11	13	2	13	17	2	17	19	2	19	22	2	22	28	2	28	36	2	36	43	2	43	44	2	44	45	2	45	46	2	46	47	2	47	48	2	48	42	2	42	41	2	41	40	2	40	39	2	39	38	2	38	37	2	37	35	2	35	34	2	34	33	2	33	32	2	32	31	2	31	30	2	30	29	2	29	27	2	27	26	2	26	25	2	25	24	2	24	23	2	23	21	2	21	20	2	20	18	2	18	16	2	16	15	2	15	14	2	14	12	2	12	4	2	4	50	2	50	2	2	2	51	
CELL_TYPES 324
3	3	3	3	3	3	3	3	3	3	3	3	3	3	3	3	3	3	3	3	3	3	3	3	3	3	3	3	3	3	3	3	3	3	3	3	3	3	3	3	3	3	3	3	3	3	3	3	3	3	3	3	3	3	3	3	3	3	3	3	3	3	3	3	3	3	3	3	3	3	3	3	3	3	3	3	3	3	3	3	3	3	3	3	3	3	3	3	3	3	3	3	3	3	3	3	3	3	3	3	3	3	3	3	3	3	3	3	3	3	3	3	3	3	3	3	3	3	3	3	3	3	3	3	3	3	3	3	3	3	3	3	3	3	3	3	3	3	3	3	3	3	3	3	3	3	3	3	3	3	3	3	3	3	3	3	3	3	3	3	3	3	3	3	3	3	3	3	3	3	3	3	3	3	3	3	3	3	3	3	3	3	3	3	3	3	3	3	3	3	3	3	3	3	3	3	3	3	3	3	3	3	3	3	3	3	3	3	3	3	3	3	3	3	3	3	3	3	3	3	3	3	3	3	3	3	3	3	3	3	3	3	3	3	3	3	3	3	3	3	3	3	3	3	3	3	3	3	3	3	3	3	3	3	3	3	3	3	3	3	3	3	3	3	3	3	3	3	3	3	3	3	3	3	3	3	3	3	3	3	3	3	3	3	3	3	3	3	3	3	3	3	3	3	3	3	3	3	3	3	3	3	3	3	3	3	3	3	3	3	3	3	3	3	3	3	3	3	3	3	3	3	3	3	
POINT_DATA 324

SCALARS Density float 1
LOOKUP_TABLE default
2.473246e+00	2.760541e+00	2.057419e+00	2.952544e+00	2.137375e+00	3.085671e+00	3.105634e+00	3.085626e+00	3.008824e+00	2.975865e+00	2.934578e+00	2.893729e+00	2.114657e+00	2.861669e+00	2.169640e+00	2.214784e+00	2.275294e+00	2.830810e+00	2.292681e+00	2.802912e+00	2.325755e+00	2.356471e+00	2.776494e+00	2.370347e+00	2.384694e+00	2.412661e+00	2.437265e+00	2.444816e+00	2.753024e+00	2.452379e+00	2.475332e+00	2.493907e+00	2.499768e+00	2.499538e+00	2.519760e+00	2.534845e+00	2.728171e+00	2.546993e+00	2.548330e+00	2.560875e+00	2.579372e+00	2.604177e+00	2.626018e+00	2.706124e+00	2.683788e+00	2.668677e+00	2.661207e+00	2.655443e+00	2.639541e+00	2.128908e+00	2.090807e+00	2.008575e+00	1.972576e+00	1.925221e+00	1.894703e+00	1.879466e+00	1.871910e+00	1.858964e+00	1.836701e+00	1.806938e+00	1.772253e+00	1.729967e+00	1.690093e+00	1.664784e+00	1.650223e+00	1.636159e+00	1.613932e+00	1.585506e+00	1.550616e+00	1.512073e+00	1.476344e+00	1.449839e+00	1.430124e+00	1.415073e+00	1.400662e+00	1.385339e+00	1.366214e+00	1.342893e+00	1.311456e+00	1.278048e+00	1.246591e+00	1.221693e+00	1.202350e+00	1.187931e+00	1.177199e+00	1.167802e+00	1.159106e+00	1.150552e+00	1.141585e+00	1.129009e+00	1.112345e+00	1.090002e+00	1.064469e+00	1.037641e+00	1.014306e+00	9.961789e-01	9.832687e-01	9.750907e-01	9.698161e-01	9.655125e-01	9.617150e-01	9.578532e-01	9.527970e-01	9.433004e-01	9.296650e-01	9.109847e-01	8.909322e-01	8.749633e-01	8.668181e-01	8.635209e-01	8.588011e-01	8.476568e-01	8.305726e-01	8.164457e-01	8.080064e-01	8.052388e-01	8.039459e-01	8.014478e-01	7.959798e-01	7.853274e-01	7.698743e-01	7.540547e-01	7.419427e-01	7.336804e-01	7.300732e-01	7.289478e-01	7.285877e-01	7.279446e-01	7.268226e-01	7.245662e-01	7.196501e-01	7.116358e-01	6.999047e-01	6.875313e-01	6.812741e-01	6.942412e-01	7.676554e-01	8.676591e-01	9.485177e-01	9.935096e-01	1.028232e+00	1.055742e+00	1.077511e+00	1.101789e+00	1.135545e+00	1.178866e+00	1.233234e+00	1.115485e+00	4.118504e+00	5.916459e-01	9.620817e-01	1.187003e+00	1.123194e+00	1.005983e+00	1.051949e+00	1.082592e+00	1.102695e+00	1.113448e+00	1.115301e+00	1.122971e+00	1.133538e+00	1.141313e+00	1.145198e+00	1.148400e+00	1.154259e+00	1.158845e+00	1.160641e+00	1.162804e+00	1.164703e+00	1.165783e+00	1.166314e+00	1.166369e+00	1.166350e+00	1.166165e+00	1.165909e+00	1.165549e+00	1.164950e+00	1.164081e+00	1.162973e+00	1.161750e+00	1.160787e+00	1.159847e+00	1.158696e+00	1.157262e+00	1.155680e+00	1.153922e+00	1.151927e+00	1.150096e+00	1.148362e+00	1.146763e+00	1.145228e+00	1.143422e+00	1.141631e+00	1.139590e+00	1.137228e+00	1.134767e+00	1.132159e+00	1.129804e+00	1.127543e+00	1.125407e+00	1.123581e+00	1.123333e+00	1.122042e+00	1.120071e+00	1.118420e+00	1.118497e+00	1.115503e+00	1.112342e+00	1.109105e+00	1.105822e+00	1.102517e+00	1.099207e+00	1.095898e+00	1.092444e+00	1.088740e+00	1.084744e+00	1.080415e+00	1.075801e+00	1.071076e+00	1.066577e+00	1.062136e+00	1.057718e+00	1.053147e+00	1.047938e+00	1.042788e+00	1.037751e+00	1.032957e+00	1.028487e+00	1.024241e+00	1.019741e+00	1.014705e+00	1.010323e+00	1.006415e+00	1.002224e+00	9.973619e-01	9.929246e-01	9.886866e-01	9.846557e-01	9.798665e-01	9.749861e-01	9.703687e-01	9.660529e-01	9.615898e-01	9.586941e-01	9.481412e-01	9.339439e-01	9.327686e-01	9.272965e-01	9.192593e-01	9.076268e-01	8.934495e-01	8.820981e-01	8.694107e-01	8.556470e-01	8.403167e-01	8.239740e-01	8.081937e-01	7.936411e-01	7.783110e-01	7.597262e-01	7.400708e-01	7.162240e-01	6.949767e-01	6.759859e-01	6.583333e-01	6.452942e-01	6.298187e-01	6.097331e-01	5.865094e-01	5.643273e-01	5.484322e-01	5.395077e-01	5.372624e-01	5.348815e-01	5.232788e-01	5.091188e-01	4.962463e-01	4.931347e-01	4.966002e-01	5.082274e-01	5.178117e-01	5.192624e-01	5.184923e-01	5.224229e-01	5.338720e-01	5.490231e-01	5.616929e-01	5.688475e-01	5.744279e-01	5.809388e-01	5.891447e-01	5.958336e-01	6.019625e-01	6.052530e-01	6.062650e-01	6.072100e-01	6.078637e-01	6.086599e-01	6.107379e-01	6.088836e-01	6.057839e-01	6.030778e-01	6.008725e-01	5.999690e-01	5.995828e-01	5.971929e-01	5.954297e-01	5.932877e-01	5.859025e-01	6.097447e-01	5.580231e-01	4.256497e-01	3.955671e-01	3.561919e-01	4.457944e-01	5.493306e-01	6.006782e-01	6.481169e-01	7.362288e-01	8.085611e-01	8.996773e-01	1.109713e+00	1.427443e+00	1.764460e+00	
SCALARS X-Momentum float 1
LOOKUP_TABLE default
0.000000e+00	0.000000e+00	0.000000e+00	0.000000e+00	0.000000e+00	0.000000e+00	0.000000e+00	0.000000e+00	0.000000e+00	0.000000e+00	0.000000e+00	0.000000e+00	0.000000e+00	0.000000e+00	0.000000e+00	0.000000e+00	0.000000e+00	0.000000e+00	0.000000e+00	0.000000e+00	0.000000e+00	0.000000e+00	0.000000e+00	0.000000e+00	0.000000e+00	0.000000e+00	0.000000e+00	0.000000e+00	0.000000e+00	0.000000e+00	0.000000e+00	0.000000e+00	0.000000e+00	0.000000e+00	0.000000e+00	0.000000e+00	0.000000e+00	0.000000e+00	0.000000e+00	0.000000e+00	0.000000e+00	0.000000e+00	0.000000e+00	0.000000e+00	0.000000e+00	0.000000e+00	0.000000e+00	0.000000e+00	0.000000e+00	0.000000e+00	0.000000e+00	0.000000e+00	0.000000e+00	0.000000e+00	0.000000e+00	0.000000e+00	0.000000e+00	0.000000e+00	0.000000e+00	0.000000e+00	0.000000e+00	0.000000e+00	0.000000e+00	0.000000e+00	0.000000e+00	0.000000e+00	0.000000e+00	0.000000e+00	0.000000e+00	0.000000e+00	0.000000e+00	0.000000e+00	0.000000e+00	0.000000e+00	0.000000e+00	0.000000e+00	0.000000e+00	0.000000e+00	0.000000e+00	0.000000e+00	0.000000e+00	0.000000e+00	0.000000e+00	0.000000e+00	0.000000e+00	0.000000e+00	0.000000e+00	0.000000e+00	0.000000e+00	0.000000e+00	0.000000e+00	0.000000e+00	0.000000e+00	0.000000e+00	0.000000e+00	0.000000e+00	0.000000e+00	0.000000e+00	0.000000e+00	0.000000e+00	0.000000e+00	0.000000e+00	0.000000e+00	0.000000e+00	0.000000e+00	0.000000e+00	0.000000e+00	0.000000e+00	0.000000e+00	0.000000e+00	0.000000e+00	0.000000e+00	0.000000e+00	0.000000e+00	0.000000e+00	0.000000e+00	0.000000e+00	0.000000e+00	0.000000e+00	0.000000e+00	0.000000e+00	0.000000e+00	0.000000e+00	0.000000e+00	0.000000e+00	0.000000e+00	0.000000e+00	0.000000e+00	0.000000e+00	0.000000e+00	0.000000e+00	0.000000e+00	0.000000e+00	0.000000e+00	0.000000e+00	0.000000e+00	0.000000e+00	0.000000e+00	0.000000e+00	0.000000e+00	0.000000e+00	0.000000e+00	0.000000e+00	0.000000e+00	0.000000e+00	0.000000e+00	0.000000e+00	0.000000e+00	0.000000e+00	0.000000e+00	0.000000e+00	0.000000e+00	0.000000e+00	0.000000e+00	0.000000e+00	0.000000e+00	0.000000e+00	0.000000e+00	0.000000e+00	0.000000e+00	0.000000e+00	0.000000e+00	0.000000e+00	0.000000e+00	0.000000e+00	0.000000e+00	0.000000e+00	0.000000e+00	0.000000e+00	0.000000e+00	0.000000e+00	0.000000e+00	0.000000e+00	0.000000e+00	0.000000e+00	0.000000e+00	0.000000e+00	0.000000e+00	0.000000e+00	0.000000e+00	0.000000e+00	0.000000e+00	0.000000e+00	0.000000e+00	0.000000e+00	0.000000e+00	0.000000e+00	0.000000e+00	0.000000e+00	0.000000e+00	0.000000e+00	0.000000e+00	0.000000e+00	0.000000e+00	0.000000e+00	0.000000e+00	0.000000e+00	0.000000e+00	0.000000e+00	0.000000e+00	0.000000e+00	0.000000e+00	0.000000e+00	0.000000e+00	0.000000e+00	0.000000e+00	0.000000e+00	0.000000e+00	0.000000e+00	0.000000e+00	0.000000e+00	0.000000e+00	0.000000e+00	0.000000e+00	0.000000e+00	0.000000e+00	0.000000e+00	0.000000e+00	0.000000e+00	0.000000e+00	0.000000e+00	0.000000e+00	0.000000e+00	0.000000e+00	0.000000e+00	0.000000e+00	0.000000e+00	0.000000e+00	0.000000e+00	0.000000e+00	0.000000e+00	0.000000e+00	0.000000e+00	0.000000e+00	0.000000e+00	0.000000e+00	0.000000e+00	0.000000e+00	0.000000e+00	0.000000e+00	0.000000e+00	0.000000e+00	0.000000e+00	0.000000e+00	0.000000e+00	0.000000e+00	0.000000e+00	0.000000e+00	0.000000e+00	0.000000e+00	0.000000e+00	0.000000e+00	0.000000e+00	0.000000e+00	0.000000e+00	0.000000e+00	0.000000e+00	0.000000e+00	0.000000e+00	0.000000e+00	0.000000e+00	0.000000e+00	0.000000e+00	0.000000e+00	0.000000e+00	0.000000e+00	0.000000e+00	0.000000e+00	0.000000e+00	0.000000e+00	0.000000e+00	0.000000e+00	0.000000e+00	0.000000e+00	0.000000e+00	0.000000e+00	0.000000e+00	0.000000e+00	0.000000e+00	0.000000e+00	0.000000e+00	0.000000e+00	0.000000e+00	0.000000e+00	0.000000e+00	0.000000e+00	0.000000e+00	0.000000e+00	0.000000e+00	0.000000e+00	0.000000e+00	0.000000e+00	0.000000e+00	0.000000e+00	0.000000e+00	0.000000e+00	0.000000e+00	0.000000e+00	0.000000e+00	0.000000e+00	0.000000e+00	0.000000e+00	0.000000e+00	0.000000e+00	0.000000e+00	0.000000e+00	0.000000e+00	0.000000e+00	0.000000e+00	0.000000e+00	0.000000e+00	0.000000e+00	0.000000e+00	0.000000e+00	0.000000e+00	0.000000e+00	0.000000e+00	0.000000e+00	0.000000e+00	0.000000e+00	0.000000e+00	0.000000e+00	0.000000e+00	0.000000e+00	
SCALARS Y-Momentum float 1
LOOKUP_TABLE default
7.362012e+02	8.217192e+02	6.124236e+02	8.788719e+02	6.362239e+02	9.184993e+02	9.244418e+02	9.184861e+02	8.956247e+02	8.858137e+02	8.735242e+02	8.613648e+02	6.294614e+02	8.518217e+02	6.458282e+02	6.592658e+02	6.772778e+02	8.426358e+02	6.824531e+02	8.343318e+02	6.922981e+02	7.014413e+02	8.264680e+02	7.055716e+02	7.098424e+02	7.181672e+02	7.254908e+02	7.277386e+02	8.194816e+02	7.299898e+02	7.368221e+02	7.423514e+02	7.440959e+02	7.440274e+02	7.500469e+02	7.545370e+02	8.120836e+02	7.581534e+02	7.585511e+02	7.622854e+02	7.677912e+02	7.751749e+02	7.816763e+02	8.055211e+02	7.988725e+02	7.943745e+02	7.921510e+02	7.904352e+02	7.857016e+02	6.337035e+02	6.223621e+02	5.978844e+02	5.871689e+02	5.730728e+02	5.639888e+02	5.594530e+02	5.572038e+02	5.533503e+02	5.467236e+02	5.378639e+02	5.275395e+02	5.149524e+02	5.030831e+02	4.955496e+02	4.912152e+02	4.870290e+02	4.804127e+02	4.719511e+02	4.615656e+02	4.500926e+02	4.394574e+02	4.315679e+02	4.256992e+02	4.212192e+02	4.169293e+02	4.123685e+02	4.066755e+02	3.997336e+02	3.903759e+02	3.804315e+02	3.710679e+02	3.636565e+02	3.578987e+02	3.536066e+02	3.504122e+02	3.476149e+02	3.450266e+02	3.424801e+02	3.398111e+02	3.360675e+02	3.311072e+02	3.244566e+02	3.168562e+02	3.088704e+02	3.019245e+02	2.965286e+02	2.926856e+02	2.902514e+02	2.886813e+02	2.874002e+02	2.862699e+02	2.851203e+02	2.836153e+02	2.807885e+02	2.767297e+02	2.711692e+02	2.652002e+02	2.604468e+02	2.580223e+02	2.570408e+02	2.556359e+02	2.523186e+02	2.472332e+02	2.430281e+02	2.405160e+02	2.396922e+02	2.393074e+02	2.385638e+02	2.369361e+02	2.337653e+02	2.291654e+02	2.244564e+02	2.208511e+02	2.183917e+02	2.173180e+02	2.169830e+02	2.168758e+02	2.166844e+02	2.163504e+02	2.156787e+02	2.142154e+02	2.118298e+02	2.083378e+02	2.046547e+02	2.027921e+02	2.066520e+02	2.285049e+02	2.582726e+02	2.823415e+02	2.957340e+02	3.060699e+02	3.142585e+02	3.207383e+02	3.279652e+02	3.380131e+02	3.509083e+02	3.670917e+02	3.320420e+02	1.225939e+03	1.761129e+02	2.863790e+02	3.533305e+02	3.343367e+02	2.994468e+02	3.131296e+02	3.222509e+02	3.282348e+02	3.314355e+02	3.319872e+02	3.342704e+02	3.374157e+02	3.397300e+02	3.408865e+02	3.418398e+02	3.435837e+02	3.449488e+02	3.454833e+02	3.461271e+02	3.466926e+02	3.470140e+02	3.471720e+02	3.471883e+02	3.471826e+02	3.471277e+02	3.470515e+02	3.469442e+02	3.467659e+02	3.465074e+02	3.461775e+02	3.458136e+02	3.455269e+02	3.452470e+02	3.449043e+02	3.444775e+02	3.440068e+02	3.434835e+02	3.428896e+02	3.423444e+02	3.418282e+02	3.413525e+02	3.408953e+02	3.403578e+02	3.398248e+02	3.392172e+02	3.385141e+02	3.377816e+02	3.370054e+02	3.363042e+02	3.356312e+02	3.349955e+02	3.344518e+02	3.343782e+02	3.339938e+02	3.334072e+02	3.329158e+02	3.329384e+02	3.320474e+02	3.311064e+02	3.301428e+02	3.291657e+02	3.281819e+02	3.271964e+02	3.262116e+02	3.251834e+02	3.240808e+02	3.228913e+02	3.216028e+02	3.202294e+02	3.188229e+02	3.174837e+02	3.161619e+02	3.148467e+02	3.134861e+02	3.119356e+02	3.104026e+02	3.089031e+02	3.074762e+02	3.061457e+02	3.048816e+02	3.035421e+02	3.020431e+02	3.007388e+02	2.995756e+02	2.983281e+02	2.968807e+02	2.955599e+02	2.942984e+02	2.930985e+02	2.916730e+02	2.902202e+02	2.888458e+02	2.875611e+02	2.862326e+02	2.853706e+02	2.822294e+02	2.780033e+02	2.776535e+02	2.760246e+02	2.736323e+02	2.701697e+02	2.659495e+02	2.625706e+02	2.587940e+02	2.546970e+02	2.501337e+02	2.452690e+02	2.405718e+02	2.362400e+02	2.316767e+02	2.261447e+02	2.202939e+02	2.131955e+02	2.068709e+02	2.012180e+02	1.959634e+02	1.920821e+02	1.874756e+02	1.814968e+02	1.745839e+02	1.679811e+02	1.632496e+02	1.605931e+02	1.599248e+02	1.592160e+02	1.557623e+02	1.515474e+02	1.477157e+02	1.467894e+02	1.478210e+02	1.512820e+02	1.541349e+02	1.545668e+02	1.543375e+02	1.555075e+02	1.589156e+02	1.634255e+02	1.671969e+02	1.693266e+02	1.709877e+02	1.729257e+02	1.753684e+02	1.773594e+02	1.791838e+02	1.801632e+02	1.804645e+02	1.807458e+02	1.809404e+02	1.811773e+02	1.817959e+02	1.812440e+02	1.803213e+02	1.795158e+02	1.788593e+02	1.785904e+02	1.784754e+02	1.777640e+02	1.772392e+02	1.766016e+02	1.744033e+02	1.815003e+02	1.661045e+02	1.267015e+02	1.177469e+02	1.060262e+02	1.326978e+02	1.635170e+02	1.788015e+02	1.929224e+02	2.191503e+02	2.406811e+02	2.678033e+02	3.303237e+02	4.249012e+02	5.252198e+02	
SCALARS Energy float 1
LOOKUP_TABLE default