# vtk DataFile Version 3.0
vtk output
ASCII

DATASET UNSTRUCTURED_GRID
POINTS 720 float
0 0.0159000476250432 0.0  0 0.0248250621460625 0.0  0 0.0313010528039088 0.0  0 0.0366500764352588 0.0  0 0.041312229409553 0.0  0 0.0454991482872455 0.0  0 0.0493319844618274 0.0  0 0.0528877763478406 0.0  0 0.0562191167050535 0.0  0 0.0593638044533338 0.0  0 0.0623500880131766 0.0  0 0.0651997367427821 0.0  0 0.0679299482364393 0.0  0 0.0705545892446589 0.0  0 0.0730850344431729 0.0  0 0.0755307517216464 0.0  0 0.0778997217691707 0.0  0 0.0801987459240569 0.0  0 0.0824336766368494 0.0  0 0.0846095930728063 0.0  -0.00276101429490616 0.0156584901744059 0.0  -0.00431082680213205 0.0244479136704523 0.0  -0.00543537077845513 0.0308255194787339 0.0  -0.00636421898433639 0.0360932794219329 0.0  -0.00717379335232704 0.0406846038167467 0.0  -0.00790084418547762 0.0448079139887315 0.0  -0.00856640920248965 0.0485825207694854 0.0  -0.00918386598365869 0.0520842921869291 0.0  -0.00976234716587702 0.0553650219986348 0.0  -0.0103084164626974 0.0584619348739437 0.0  -0.0108269791608608 0.0614028500763699 0.0  -0.0113218154697477 0.0642092062386468 0.0  -0.0117959117202666 0.0668979396849634 0.0  -0.0122516758483738 0.0694827064987319 0.0  -0.0126910830457818 0.0719747085488009 0.0  -0.0131157773942773 0.0743832698863175 0.0  -0.0135271447259774 0.0767162499557732 0.0  -0.0139263660808856 0.0789803467678675 0.0  -0.0143144577263739 0.0811813238612707 0.0  -0.0146923016502334 0.0833241832373077 0.0  -0.00543813656760225 0.0149411574233976 0.0  -0.00849067131326493 0.0233279277092065 0.0  -0.0107055905662372 0.0294133683426632 0.0  -0.0125350643952839 0.0344398063774522 0.0  -0.0141296146237582 0.0388207971243715 0.0  -0.0155616252183996 0.0427552138975684 0.0  -0.0168725323961739 0.0463569017675043 0.0  -0.0180886848466643 0.0496982531638413 0.0  -0.0192280703531049 0.0528286891148406 0.0  -0.0203036169074862 0.0557837289865754 0.0  -0.0213249860386347 0.058589917611334 0.0  -0.0222996233055622 0.0612677114943762 0.0  -0.0232334106319322 0.0638332710881507 0.0  -0.0241310907257419 0.0662996268757868 0.0  -0.0249965539552154 0.0686774675561335 0.0  -0.025833038529333 0.0709756900352436 0.0  -0.0266432740045215 0.0732017937077651 0.0  -0.0274295865754848 0.0753621697411202 0.0  -0.0281939778981971 0.0774623176398992 0.0  -0.0289381851494877 0.0795070102582146 0.0  -0.00795002381252162 0.0137698451646699 0.0  -0.0124125310730313 0.0214991344690176 0.0  -0.0156505264019544 0.0271075068933832 0.0  -0.0183250382176294 0.0317398972435755 0.0  -0.0206561147047765 0.0357774401556435 0.0  -0.0227495741436228 0.0394034182673099 0.0  -0.0246659922309137 0.0427227517630417 0.0  -0.0264438881739203 0.0458021578668997 0.0  -0.0281095583525268 0.0486871832448985 0.0  -0.0296819022266669 0.0514105627218788 0.0  -0.0311750440065883 0.0539967601476066 0.0  -0.0325998683713911 0.056464628339307 0.0  -0.0339649741182196 0.0588290608505183 0.0  -0.0352772946223295 0.061102066639451 0.0  -0.0365425172215864 0.0632934964642484 0.0  -0.0377653758608232 0.065411549757881 0.0  -0.0389498608845854 0.0674631379998415 0.0  -0.0400993729620285 0.069454151321887 0.0  -0.0412168383184247 0.0713896580948634 0.0  -0.0423047965364032 0.0732740570049142 0.0  -0.0102203536068037 0.0121801431284915 0.0  -0.0159572423571873 0.0190171009070745 0.0  -0.0201199289124967 0.0239779975642081 0.0  -0.023558215026649 0.0280755873931158 0.0  -0.0265549891929885 0.0316470037720445 0.0  -0.0292462887703319 0.0348543697120908 0.0  -0.0317099883733115 0.0377904925650147 0.0  -0.0339956073402647 0.0405143871801826 0.0  -0.0361369516455299 0.0430663419489635 0.0  -0.0381583179664575 0.045475312523878 0.0  -0.0400778640377352 0.0477629384504732 0.0  -0.0419095829330846 0.0499458960246285 0.0  -0.0436645290530311 0.0520373593678841 0.0  -0.0453516157729899 0.054047951027413 0.0  -0.0469781545935855 0.0559863845103517 0.0  -0.0485502313569845 0.0578599126409664 0.0  -0.0500729759512517 0.0596746489817877 0.0  -0.0515507601923826 0.0614358036602346 0.0  -0.0529873459630736 0.0631478599135252 0.0  -0.05438599808782 0.0648147086079813 0.0  -0.0121801431284915 0.0102203536068037 0.0  -0.0190171009070745 0.0159572423571873 0.0  -0.0239779975642081 0.0201199289124967 0.0  -0.0280755873931158 0.023558215026649 0.0  -0.0316470037720445 0.0265549891929885 0.0  -0.0348543697120908 0.029246288770332 0.0  -0.0377904925650147 0.0317099883733115 0.0  -0.0405143871801826 0.0339956073402647 0.0  -0.0430663419489636 0.0361369516455299 0.0  -0.045475312523878 0.0381583179664576 0.0  -0.0477629384504732 0.0400778640377352 0.0  -0.0499458960246285 0.0419095829330846 0.0  -0.0520373593678841 0.0436645290530311 0.0  -0.054047951027413 0.0453516157729899 0.0  -0.0559863845103517 0.0469781545935855 0.0  -0.0578599126409664 0.0485502313569845 0.0  -0.0596746489817877 0.0500729759512517 0.0  -0.0614358036602346 0.0515507601923826 0.0  -0.0631478599135252 0.0529873459630736 0.0  -0.0648147086079813 0.05438599808782 0.0  -0.0137698451646699 0.00795002381252162 0.0  -0.0214991344690176 0.0124125310730313 0.0  -0.0271075068933832 0.0156505264019544 0.0  -0.0317398972435755 0.0183250382176294 0.0  -0.0357774401556435 0.0206561147047765 0.0  -0.0394034182673099 0.0227495741436228 0.0  -0.0427227517630417 0.0246659922309137 0.0  -0.0458021578668997 0.0264438881739203 0.0  -0.0486871832448984 0.0281095583525268 0.0  -0.0514105627218788 0.0296819022266669 0.0  -0.0539967601476066 0.0311750440065883 0.0  -0.056464628339307 0.0325998683713911 0.0  -0.0588290608505183 0.0339649741182196 0.0  -0.061102066639451 0.0352772946223295 0.0  -0.0632934964642484 0.0365425172215864 0.0  -0.065411549757881 0.0377653758608232 0.0  -0.0674631379998415 0.0389498608845854 0.0  -0.069454151321887 0.0400993729620285 0.0  -0.0713896580948634 0.0412168383184247 0.0  -0.0732740570049142 0.0423047965364032 0.0  -0.0149411574233976 0.00543813656760225 0.0  -0.0233279277092065 0.00849067131326494 0.0  -0.0294133683426632 0.0107055905662372 0.0  -0.0344398063774522 0.0125350643952839 0.0  -0.0388207971243715 0.0141296146237582 0.0  -0.0427552138975684 0.0155616252183996 0.0  -0.0463569017675043 0.0168725323961739 0.0  -0.0496982531638413 0.0180886848466643 0.0  -0.0528286891148406 0.0192280703531049 0.0  -0.0557837289865754 0.0203036169074862 0.0  -0.058589917611334 0.0213249860386347 0.0  -0.0612677114943762 0.0222996233055622 0.0  -0.0638332710881507 0.0232334106319322 0.0  -0.0662996268757868 0.0241310907257419 0.0  -0.0686774675561335 0.0249965539552154 0.0  -0.0709756900352436 0.025833038529333 0.0  -0.0732017937077651 0.0266432740045215 0.0  -0.0753621697411202 0.0274295865754848 0.0  -0.0774623176398992 0.0281939778981971 0.0  -0.0795070102582146 0.0289381851494877 0.0  -0.0156584901744059 0.00276101429490616 0.0  -0.0244479136704523 0.00431082680213205 0.0  -0.0308255194787339 0.00543537077845513 0.0  -0.0360932794219329 0.0063642189843364 0.0  -0.0406846038167467 0.00717379335232704 0.0  -0.0448079139887315 0.00790084418547762 0.0  -0.0485825207694854 0.00856640920248966 0.0  -0.0520842921869291 0.0091838659836587 0.0  -0.0553650219986348 0.00976234716587703 0.0  -0.0584619348739437 0.0103084164626974 0.0  -0.0614028500763699 0.0108269791608608 0.0  -0.0642092062386468 0.0113218154697477 0.0  -0.0668979396849634 0.0117959117202666 0.0  -0.0694827064987319 0.0122516758483738 0.0  -0.0719747085488009 0.0126910830457818 0.0  -0.0743832698863175 0.0131157773942773 0.0  -0.0767162499557732 0.0135271447259774 0.0  -0.0789803467678675 0.0139263660808856 0.0  -0.0811813238612707 0.0143144577263739 0.0  -0.0833241832373077 0.0146923016502334 0.0  -0.0159000476250432 9.73597121514984e-19 0.0  -0.0248250621460625 1.52009664479048e-18 0.0  -0.0313010528039088 1.91663670631246e-18 0.0  -0.0366500764352588 2.24416993974728e-18 0.0  -0.041312229409553 2.52964447560251e-18 0.0  -0.0454991482872455 2.7860193156953e-18 0.0  -0.0493319844618274 3.0207128433382e-18 0.0  -0.0528877763478406 3.2384423009202e-18 0.0  -0.0562191167050535 3.44242806618676e-18 0.0  -0.0593638044533338 3.63498465544923e-18 0.0  -0.0623500880131766 3.81784178559463e-18 0.0  -0.0651997367427821 3.99233244536491e-18 0.0  -0.0679299482364393 4.15950968370004e-18 0.0  -0.0705545892446589 4.32022259418139e-18 0.0  -0.0730850344431729 4.47516767482029e-18 0.0  -0.0755307517216464 4.62492466665538e-18 0.0  -0.0778997217691707 4.76998224595422e-18 0.0  -0.0801987459240569 4.91075687457641e-18 0.0  -0.0824336766368494 5.04760691176328e-18 0.0  -0.0846095930728063 5.18084336668862e-18 0.0  -0.0156584901744059 -0.00276101429490616 0.0  -0.0244479136704523 -0.00431082680213205 0.0  -0.0308255194787339 -0.00543537077845513 0.0  -0.0360932794219329 -0.00636421898433639 0.0  -0.0406846038167467 -0.00717379335232704 0.0  -0.0448079139887315 -0.00790084418547762 0.0  -0.0485825207694854 -0.00856640920248965 0.0  -0.0520842921869291 -0.00918386598365869 0.0  -0.0553650219986348 -0.00976234716587702 0.0  -0.0584619348739437 -0.0103084164626974 0.0  -0.0614028500763699 -0.0108269791608608 0.0  -0.0642092062386468 -0.0113218154697477 0.0  -0.0668979396849634 -0.0117959117202666 0.0  -0.0694827064987319 -0.0122516758483738 0.0  -0.0719747085488009 -0.0126910830457818 0.0  -0.0743832698863175 -0.0131157773942773 0.0  -0.0767162499557732 -0.0135271447259774 0.0  -0.0789803467678675 -0.0139263660808856 0.0  -0.0811813238612707 -0.0143144577263739 0.0  -0.0833241832373077 -0.0146923016502334 0.0  -0.0149411574233976 -0.00543813656760225 0.0  -0.0233279277092065 -0.00849067131326493 0.0  -0.0294133683426632 -0.0107055905662372 0.0  -0.0344398063774522 -0.0125350643952839 0.0  -0.0388207971243715 -0.0141296146237582 0.0  -0.0427552138975684 -0.0155616252183996 0.0  -0.0463569017675043 -0.0168725323961739 0.0  -0.0496982531638413 -0.0180886848466643 0.0  -0.0528286891148406 -0.0192280703531049 0.0  -0.0557837289865754 -0.0203036169074862 0.0  -0.058589917611334 -0.0213249860386347 0.0  -0.0612677114943763 -0.0222996233
[...]
POINT_DATA 720
SCALARS PT/PT_inf float
LOOKUP_TABLE default
0.399987383770905 0.399987383770905 0.399987383770905 0.399987383770905 0.399987383770905 0.399987383770905 0.399987383770905 0.399987383770905 0.399987383770905 0.399987383770905 0.399987383770905 0.399987383770905 0.399987383770905 0.399987383770905 0.399987383770905 0.399987383770905 0.399987383770905 0.399987383770905 0.399987383770905 0.399987383770905 0.399987383770905 0.399987383770905 0.399987383770905 0.399987383770905 0.399987383770905 0.830772049680726 0.830772049680726 0.816914225099533 0.816914225099533 0.808125971672333 0.808125971672333 0.804140166885996 0.804140166885996 0.804140166885996 0.80054379409161 0.80054379409161 0.80054379409161 0.792799494005112 0.792799494005112 0.792799494005112 0.399987383770905 0.830772049680726 0.808125971672333 0.80054379409161 0.792799494005112 0.78139220617838 0.766573449111839 1.54742111185158 1.61007401589674 1.62715474072116 1.63159245069804 1.63559948544832 1.60293058361892 1.60293058361892 1.58100149023894 1.57550250159583 1.57118493346081 1.55377184426423 1.55130246361699 1.55003300803947 0.830772049680726 0.80054379409161 0.78139220617838 1.55266654019332 1.62715474072116 1.63559948544832 1.58100149023894 1.57550250159583 1.55130246361699 1.55037485275635 1.53550252677589 1.53550252677589 1.53550252677589 1.50644317060894 1.49274426303877 1.45984112400843 1.45984112400843 1.45984112400843 1.45984112400843 1.45984112400843 0.808125971672333 0.766573449111839 1.62715474072116 1.60293058361892 1.57550250159583 1.55003300803947 1.53550252677589 1.51379881642217 1.49274426303877 1.45984112400843 1.45984112400843 1.45984112400843 1.45984112400843 1.45984112400843 1.45984112400843 1.45984112400843 1.45984112400843 1.45984112400843 1.45984112400843 1.45984112400843 0.804140166885996 1.55266654019332 1.60293058361892 1.55130246361699 1.53550252677589 1.50644317060894 1.45984112400843 1.45984112400843 1.45984112400843 1.45984112400843 1.45984112400843 1.45984112400843 1.45984112400843 1.45984112400843 1.45984112400843 1.45984112400843 1.45984112400843 1.45984112400843 1.45984112400843 1.45984112400843 0.792799494005112 1.63159245069804 1.55377184426423 1.53550252677589 1.49274426303877 1.45984112400843 1.45984112400843 1.45984112400843 1.45984112400843 1.45984112400843 1.45984112400843 1.45984112400843 1.45984112400843 1.45984112400843 1.45984112400843 1.45984112400843 1.45984112400843 1.45984112400843 1.45984112400843 1.45984112400843 0.78139220617838 1.60293058361892 1.55037485275635 1.50644317060894 1.45984112400843 1.45984112400843 1.45984112400843 1.45984112400843 1.45984112400843 1.45984112400843 1.45984112400843 1.45984112400843 1.45984112400843 1.45984112400843 1.45984112400843 1.45984112400843 1.45984112400843 1.45984112400843 1.45984112400843 1.45984112400843 0.78139220617838 1.58100149023894 1.55037485275635 1.49274426303877 1.45984112400843 1.45984112400843 1.45984112400843 1.45984112400843 1.45984112400843 1.45984112400843 1.45984112400843 1.45984112400843 1.45984112400843 1.45984112400843 1.45984112400843 1.45984112400843 1.45984112400843 1.45984112400843 1.45984112400843 1.45984112400843 0.78139220617838 1.58100149023894 1.53550252677589 1.49274426303877 1.45984112400843 1.45984112400843 1.45984112400843 1.45984112400843 1.45984112400843 1.45984112400843 1.45984112400843 1.45984112400843 1.45984112400843 1.45984112400843 1.45984112400843 1.45984112400843 1.45984112400843 1.45984112400843 1.45984112400843 1.45984112400843 0.78139220617838 1.58100149023894 1.55037485275635 1.49274426303877 1.45984112400843 1.45984112400843 1.45984112400843 1.45984112400843 1.45984112400843 1.45984112400843 1.45984112400843 1.45984112400843 1.45984112400843 1.45984112400843 1.45984112400843 1.45984112400843 1.45984112400843 1.45984112400843 1.45984112400843 1.45984112400843 0.78139220617838 1.60293058361892 1.55037485275635 1.50644317060894 1.45984112400843 1.45984112400843 1.45984112400843 1.45984112400843 1.45984112400843 1.45984112400843 1.45984112400843 1.45984112400843 1.45984112400843 1.45984112400843 1.45984112400843 1.45984112400843 1.45984112400843 1.45984112400843 1.45984112400843 1.45984112400843 0.792799494005112 1.63159245069804 1.55377184426423 1.53550252677589 1.49274426303877 1.45984112400843 1.45984112400843 1.45984112400843 1.45984112400843 1.45984112400843 1.45984112400843 1.45984112400843 1.45984112400843 1.45984112400843 1.45984112400843 1.45984112400843 1.45984112400843 1.45984112400843 1.45984112400843 1.45984112400843 0.804140166885996 1.55266654019332 1.60293058361892 1.55130246361699 1.53550252677589 1.50644317060894 1.45984112400843 1.45984112400843 1.45984112400843 1.45984112400843 1.45984112400843 1.45984112400843 1.45984112400843 1.45984112400843 1.45984112400843 1.45984112400843 1.45984112400843 1.45984112400843 1.45984112400843 1.45984112400843 0.808125971672333 0.766573449111839 1.62715474072116 1.60293058361892 1.57550250159583 1.55003300803947 1.53550252677589 1.51379881642217 1.49274426303877 1.45984112400843 1.45984112400843 1.45984112400843 1.45984112400843 1.45984112400843 1.45984112400843 1.45984112400843 1.45984112400843 1.45984112400843 1.45984112400843 1.45984112400843 0.830772049680726 0.80054379409161 0.78139220617838 1.55266654019332 1.62715474072116 1.63559948544832 1.58100149023894 1.57550250159583 1.55130246361699 1.55037485275635 1.53550252677589 1.53550252677589 1.53550252677589 1.50644317060894 1.49274426303877 1.45984112400843 1.45984112400843 1.45984112400843 1.45984112400843 1.45984112400843 0.399987383770905 0.830772049680726 0.808125971672333 0.80054379409161 0.792799494005112 0.78139220617838 0.766573449111839 1.54742111185158 1.61007401589674 1.62715474072116 1.63159245069804 1.63559948544832 1.60293058361892 1.60293058361892 1.58100149023894 1.57550250159583 1.57118493346081 1.55377184426423 1.55130246361699 1.55003300803947 0.399987383770905 0.399987383770905 0.399987383770905 0.399987383770905 0.399987383770905 0.830772049680726 0.830772049680726 0.816914225099533 0.816914225099533 0.808125971672333 0.808125971672333 0.804140166885996 0.804140166885996 0.804140166885996 0.80054379409161 0.80054379409161 0.80054379409161 0.792799494005112 0.792799494005112 0.792799494005112 0.399987383770905 0.399987383770905 0.399987383770905 0.399987383770905 0.399987383770905 0.399987383770905 0.399987383770905 0.399987383770905 0.399987383770905 0.399987383770905 0.399987383770905 0.399987383770905 0.399987383770905 0.399987383770905 0.399987383770905 0.399987383770905 0.399987383770905 0.399987383770905 0.399987383770905 0.399987383770905 0.399987383770905 0.399987383770905 0.399987383770905 0.399987383770905 0.399987383770905 0.399987383770905 1.78125963131289 1.78125963131289 1.72308026358656 1.72308026358656 1.72308026358656 1.72308026358656 1.72308026358656 1.72308026358656 1.72308026358656 1.72308026358656 1.72308026358656 1.72308026358656 1.72308026358656 1.72308026358656 0.399987383770905 0.399987383770905 1.72308026358656 1.72308026358656 1.72308026358656 1.65833598014095 1.65833598014095 1.65833598014095 1.65833598014095 1.65833598014095 1.65833598014095 1.57513582653934 1.57513582653934 1.57513582653934 1.57513582653934 1.57513582653934 1.57513582653934 1.57513582653934 1.57513582653934 1.48074813351461 0.399987383770905 1.72308026358656 1.65833598014095 1.65833598014095 1.65833598014095 1.57513582653934 1.57513582653934 1.57513582653934 1.57513582653934 1.48074813351461 1.48074813351461 1.48074813351461 1.48074813351461 1.48074813351461 1.37018877033556 1.37018877033556 1.37018877033556 1.37018877033556 1.37018877033556 1.37018877033556 1.72308026358656 1.65833598014095 1.65833598014095 1.57513582653934 1.57513582653934 1.48074813351461 1.48074813351461 1.48074813351461 1.37018877033556 1.37018877033556 1.37018877033556 1.37018877033556 1.24623182251875 1.24623182251875 1.24623182251875 1.24623182251875 1.24623182251875 1.24623182251875 1.12205736649037 1.12205736649037 1.72308026358656 1.65833598014095 1.57513582653934 1.57513582653934 1.48074813351461 1.48074813351461 1.37018877033556 1.37018877033556 1.37018877033556 1.24623182251875 1.24623182251875 1.24623182251875 1.24623182251875 1.12205736649037 1.12205736649037 1.12205736649037 1.12205736649037 1.12205736649037 1.00777184104537 1.00777184104537 1.72308026358656 1.65833598014095 1.57513582653934 1.48074813351461 1.37018877033556 1.37018877033556 1.37018877033556 1.24623182251875 1.24623182251875 1.24623182251875 1.12205736649037 1.12205736649037 1.12205736649037 1.12205736649037 1.00777184104537 1.00777184104537 1.00777184104537 1.00777184104537 1.00777184104537 0.926167503846774 1.72308026358656 1.57513582653934 1.48074813351461 1.48074813351461 1.37018877033556 1.37018877033556 1.24623182251875 1.24623182251875 1.12205736649037 1.12205736649037 1.12205736649037 1.12205736649037 1.00777184104537 1.00777184104537 1.00777184104537 1.00777184104537 0.926167503846774 0.926167503846774 0.926167503846774 0.926167503846774 1.65833598014095 1.57513582653934 1.48074813351461 1.37018877033556 1.37018877033556 1.24623182251875 1.24623182251875 1.24623182251875 1.12205736649037 1.12205736649037 1.12205736649037 1.00777184104537 1.00777184104537 1.00777184104537 1.00777184104537 0.926167503846774 0.926167503846774 0.926167503846774 0.926167503846774 0.926167503846774 1.65833598014095 1.57513582653934 1.48074813351461 1.37018877033556 1.37018877033556 1.24623182251875 1.24623182251875 1.12205736649037 1.12205736649037 1.12205736649037 1.00777184104537 1.00777184104537 1.00777184104537 1.00777184104537 0.926167503846774 0.926167503846774 0.926167503846774 0.926167503846774 0.926167503846774 0.93770783422967 1.65833598014095 1.57513582653934 1.48074813351461 1.37018877033556 1.37018877033556 1.24623182251875 1.24623182251875 1.24623182251875 1.12205736649037 1.12205736649037 1.12205736649037 1.00777184104537 1.00777184104537 1.00777184104537 1.00777184104537 0.926167503846774 0.926167503846774 0.926167503846774 0.926167503846774 0.926167503846774 1.72308026358656 1.57513582653934 1.48074813351461 1.48074813351461 1.37018877033556 1.37018877033556 1.24623182251875 1.24623182251875 1.12205736649037 1.12205736649037 1.12205736649037 1.12205736649037 1.00777184104537 1.00777184104537 1.00777184104537 1.00777184104537 0.926167503846774 0.926167503846774 0.926167503846774 0.926167503846774 1.72308026358656 1.65833598014095 1.57513582653934 1.48074813351461 1.37018877033556 1.37018877033556 1.37018877033556 1.24623182251875 1.24623182251875 1.24623182251875 1.12205736649037 1.12205736649037 1.12205736649037 1.12205736649037 1.00777184104537 1.00777184104537 1.00777184104537 1.00777184104537 1.00777184104537 0.926167503846774 1.72308026358656 1.65833598014095 1.57513582653934 1.57513582653934 1.48074813351461 1.48074813351461 1.37018877033556 1.37018877033556 1.37018877033556 1.24623182251875 1.24623182251875 1.24623182251875 1.24623182251875 1.12205736649037 1.12205736649037 1.12205736649037 1.12205736649037 1.12205736649037 1.00777184104537 1.00777184104537 1.72308026358656 1.65833598014095 1.65833598014095 1.57513582653934 1.57513582653934 1.48074813351461 1.48074813351461 1.48074813351461 1.37018877033556 1.37018877033556 1.37018877033556 1.37018877033556 1.24623182251875 1.24623182251875 1.24623182251875 1.24623182251875 1.24623182251875 1.24623182251875 1.12205736649037 1.12205736649037 0.399987383770905 1.72308026358656 1.65833598014095 1.65833598014095 1.65833598014095 1.57513582653934 1.57513582653934 1.57513582653934 1.57513582653934 1.48074813351461 1.48074813351461 1.48074813351461 1.48074813351461 1.48074813351461 1.37018877033556 1.37018877033556 1.37018877033556 1.37018877033556 1.37018877033556 1.37018877033556 0.399987383770905 0.399987383770905 1.72308026358656 1.72308026358656 1.72308026358656 1.65833598014095 1.65833598014095 1.65833598014095 1.65833598014095 1.65833598014095 1.65833598014095 1.57513582653934 1.57513582653934 1.57513582653934 1.57513582653934 1.57513582653934 1.57513582653934 1.57513582653934 1.57513582653934 1.48074813351461 0.399987383770905 0.399987383770905 0.399987383770905 0.399987383770905 0.399987383770905 0.399987383770905 1.78125963131289 1.78125963131289 1.72308026358656 1.72308026358656 1.72308026358656 1.72308026358656 1.72308026358656 1.72308026358656 1.72308026358656 1.72308026358656 1.72308026358656 1.72308026358656 1.72308026358656 1.72308026358656 SCALARS TT/TT_inf float
LOOKUP_TABLE default