# vtk DataFile Version 3.0
vtk output
ASCII
DATASET UNSTRUCTURED_GRID
POINTS 324 float
3.085804e-01	-3.230213e-03	0.0	3.089526e-01	-2.604522e-03	0.0	3.492715e-01	5.209667e-03	0.0	3.095147e-01	-1.961682e-03	0.0	3.476966e-01	4.400654e-03	0.0	3.101596e-01	-1.396191e-03	0.0	3.109480e-01	-1.059579e-03	0.0	3.117682e-01	-7.994838e-04	0.0	3.126276e-01	-7.984141e-04	0.0	3.134890e-01	-8.638602e-04	0.0	3.143517e-01	-9.256926e-04	0.0	3.152157e-01	-9.854075e-04	0.0	3.469004e-01	4.013196e-03	0.0	3.160808e-01	-1.043356e-03	0.0	3.461063e-01	3.621450e-03	0.0	3.453074e-01	3.239690e-03	0.0	3.444980e-01	2.880663e-03	0.0	3.169474e-01	-1.093644e-03	0.0	3.436813e-01	2.538755e-03	0.0	3.178151e-01	-1.141949e-03	0.0	3.428659e-01	2.193951e-03	0.0	3.420457e-01	1.861087e-03	0.0	3.186839e-01	-1.187218e-03	0.0	3.412151e-01	1.555801e-03	0.0	3.403773e-01	1.271143e-03	0.0	3.395409e-01	9.828459e-04	0.0	3.387002e-01	7.085158e-04	0.0	3.378498e-01	4.667364e-04	0.0	3.195542e-01	-1.220909e-03	0.0	3.369925e-01	2.518513e-04	0.0	3.361364e-01	3.350940e-05	0.0	3.352778e-01	-1.730286e-04	0.0	3.344121e-01	-3.452022e-04	0.0	3.335416e-01	-4.895788e-04	0.0	3.326712e-01	-6.311072e-04	0.0	3.318010e-01	-7.718520e-04	0.0	3.204255e-01	-1.250547e-03	0.0	3.309276e-01	-8.860647e-04	0.0	3.300515e-01	-9.725823e-04	0.0	3.291748e-01	-1.047109e-03	0.0	3.282993e-01	-1.128879e-03	0.0	3.274245e-01	-1.210247e-03	0.0	3.265490e-01	-1.276510e-03	0.0	3.212979e-01	-1.271940e-03	0.0	3.221712e-01	-1.293108e-03	0.0	3.230453e-01	-1.314082e-03	0.0	3.239203e-01	-1.328909e-03	0.0	3.247961e-01	-1.331615e-03	0.0	3.256726e-01	-1.316176e-03	0.0	3.083361e-01	-3.913094e-03	0.0	3.484891e-01	4.795396e-03	0.0	3.500443e-01	5.641354e-03	0.0	3.505637e-01	5.940783e-03	0.0	3.510818e-01	6.242514e-03	0.0	3.516005e-01	6.543308e-03	0.0	3.521204e-01	6.842176e-03	0.0	3.526394e-01	7.142492e-03	0.0	3.531554e-01	7.448047e-03	0.0	3.536673e-01	7.760462e-03	0.0	3.541757e-01	8.078652e-03	0.0	3.546812e-01	8.401356e-03	0.0	3.551850e-01	8.726799e-03	0.0	3.556884e-01	9.052778e-03	0.0	3.561926e-01	9.377406e-03	0.0	3.566970e-01	9.701935e-03	0.0	3.571994e-01	1.002937e-02	0.0	3.576988e-01	1.036143e-02	0.0	3.581956e-01	1.069725e-02	0.0	3.586906e-01	1.103562e-02	0.0	3.591848e-01	1.137519e-02	0.0	3.596791e-01	1.171455e-02	0.0	3.601738e-01	1.205311e-02	0.0	3.606683e-01	1.239196e-02	0.0	3.611617e-01	1.273236e-02	0.0	3.616532e-01	1.307533e-02	0.0	3.621427e-01	1.342115e-02	0.0	3.626299e-01	1.376992e-02	0.0	3.631150e-01	1.412154e-02	0.0	3.635988e-01	1.447491e-02	0.0	3.640822e-01	1.482856e-02	0.0	3.645663e-01	1.518121e-02	0.0	3.650508e-01	1.553303e-02	0.0	3.655351e-01	1.588498e-02	0.0	3.660186e-01	1.623800e-02	0.0	3.665004e-01	1.659304e-02	0.0	3.669800e-01	1.695083e-02	0.0	3.674573e-01	1.731157e-02	0.0	3.679320e-01	1.767539e-02	0.0	3.684042e-01	1.804240e-02	0.0	3.688736e-01	1.841269e-02	0.0	3.693407e-01	1.878566e-02	0.0	3.698063e-01	1.916020e-02	0.0	3.702714e-01	1.953521e-02	0.0	3.707369e-01	1.990957e-02	0.0	3.712032e-01	2.028254e-02	0.0	3.716699e-01	2.065485e-02	0.0	3.721360e-01	2.102757e-02	0.0	3.726007e-01	2.140178e-02	0.0	3.730631e-01	2.177851e-02	0.0	3.735228e-01	2.215833e-02	0.0	3.739796e-01	2.254132e-02	0.0	3.744334e-01	2.292759e-02	0.0	3.748840e-01	2.331720e-02	0.0	3.753316e-01	2.371001e-02	0.0	3.757771e-01	2.410498e-02	0.0	3.762213e-01	2.450094e-02	0.0	3.766655e-01	2.489671e-02	0.0	3.771105e-01	2.529122e-02	0.0	3.775554e-01	2.568542e-02	0.0	3.779981e-01	2.608187e-02	0.0	3.784375e-01	2.648149e-02	0.0	3.788740e-01	2.688399e-02	0.0	3.793093e-01	2.728748e-02	0.0	3.797452e-01	2.768994e-02	0.0	3.801809e-01	2.809223e-02	0.0	3.806148e-01	2.849608e-02	0.0	3.810456e-01	2.890280e-02	0.0	3.814733e-01	2.931248e-02	0.0	3.818978e-01	2.972501e-02	0.0	3.823199e-01	3.013972e-02	0.0	3.827409e-01	3.055504e-02	0.0	3.831625e-01	3.096943e-02	0.0	3.835847e-01	3.138273e-02	0.0	3.840066e-01	3.179598e-02	0.0	3.844271e-01	3.221022e-02	0.0	3.848451e-01	3.262651e-02	0.0	3.852599e-01	3.304552e-02	0.0	3.856716e-01	3.346721e-02	0.0	3.860802e-01	3.389150e-02	0.0	3.864856e-01	3.431827e-02	0.0	3.868883e-01	3.474732e-02	0.0	3.872888e-01	3.517786e-02	0.0	3.876882e-01	3.560898e-02	0.0	3.880875e-01	3.603977e-02	0.0	3.884875e-01	3.646937e-02	0.0	3.888881e-01	3.689801e-02	0.0	3.892881e-01	3.732663e-02	0.0	3.896867e-01	3.775620e-02	0.0	3.900826e-01	3.818768e-02	0.0	3.904754e-01	3.862152e-02	0.0	3.908652e-01	3.905758e-02	0.0	3.912521e-01	3.949567e-02	0.0	3.916363e-01	3.993562e-02	0.0	3.920181e-01	4.037717e-02	0.0	3.923980e-01	4.081987e-02	0.0	3.927765e-01	4.126324e-02	0.0	3.931543e-01	4.170701e-02	0.0	3.935849e-01	4.208953e-02	0.0	3.941278e-01	4.229537e-02	0.0	3.947040e-01	4.232142e-02	0.0	3.952414e-01	4.210361e-02	0.0	3.957366e-01	4.165683e-02	0.0	3.960041e-01	4.105694e-02	0.0	3.960432e-01	4.038936e-02	0.0	3.957582e-01	3.978330e-02	0.0	3.954517e-01	3.918439e-02	0.0	3.951172e-01	3.860033e-02	0.0	3.947718e-01	3.802233e-02	0.0	3.944288e-01	3.744266e-02	0.0	3.940753e-01	3.686905e-02	0.0	3.937058e-01	3.630534e-02	0.0	3.933294e-01	3.574593e-02	0.0	3.929527e-01	3.518647e-02	0.0	3.925764e-01	3.462648e-02	0.0	3.921933e-01	3.407094e-02	0.0	3.918060e-01	3.351797e-02	0.0	3.914216e-01	3.296284e-02	0.0	3.910376e-01	3.240710e-02	0.0	3.906531e-01	3.185160e-02	0.0	3.902689e-01	3.129564e-02	0.0	3.898861e-01	3.073847e-02	0.0	3.895048e-01	3.018008e-02	0.0	3.891242e-01	2.962103e-02	0.0	3.887436e-01	2.906182e-02	0.0	3.883628e-01	2.850254e-02	0.0	3.879818e-01	2.794325e-02	0.0	3.876008e-01	2.738379e-02	0.0	3.872202e-01	2.682392e-02	0.0	3.868400e-01	2.626362e-02	0.0	3.864595e-01	2.570334e-02	0.0	3.860783e-01	2.514349e-02	0.0	3.856963e-01	2.458394e-02	0.0	3.853143e-01	2.402435e-02	0.0	3.849324e-01	2.346457e-02	0.0	3.845505e-01	2.290465e-02	0.0	3.841687e-01	2.234461e-02	0.0	3.837868e-01	2.178450e-02	0.0	3.834044e-01	2.122460e-02	0.0	3.830209e-01	2.066543e-02	0.0	3.826354e-01	2.010755e-02	0.0	3.822472e-01	1.955150e-02	0.0	3.818563e-01	1.899729e-02	0.0	3.814637e-01	1.844420e-02	0.0	3.810706e-01	1.789143e-02	0.0	3.806781e-01	1.733822e-02	0.0	3.802864e-01	1.678436e-02	0.0	3.798946e-01	1.623061e-02	0.0	3.795014e-01	1.567777e-02	0.0	3.791060e-01	1.512656e-02	0.0	3.787075e-01	1.457756e-02	0.0	3.783051e-01	1.403133e-02	0.0	3.778993e-01	1.348775e-02	0.0	3.774917e-01	1.294545e-02	0.0	3.770845e-01	1.240292e-02	0.0	3.766786e-01	1.185945e-02	0.0	3.762731e-01	1.131572e-02	0.0	3.758669e-01	1.077254e-02	0.0	3.754589e-01	1.023076e-02	0.0	3.750481e-01	9.691202e-03	0.0	3.746336e-01	9.154567e-03	0.0	3.742145e-01	8.621531e-03	0.0	3.737901e-01	8.092786e-03	0.0	3.733598e-01	7.569026e-03	0.0	3.729239e-01	7.049953e-03	0.0	3.724845e-01	6.533896e-03	0.0	3.720439e-01	6.019046e-03	0.0	3.716041e-01	5.503582e-03	0.0	3.711665e-01	4.986414e-03	0.0	3.707284e-01	4.469844e-03	0.0	3.702861e-01	3.956989e-03	0.0	3.698379e-01	3.449392e-03	0.0	3.693834e-01	2.947656e-03	0.0	3.689248e-01	2.449865e-03	0.0	3.684664e-01	1.951943e-03	0.0	3.680095e-01	1.452949e-03	0.0	3.675499e-01	9.565835e-04	0.0	3.670845e-01	4.659658e-04	0.0	3.666122e-01	-1.784669e-05	0.0	3.661336e-01	-4.952477e-04	0.0	3.656532e-01	-9.705890e-04	0.0	3.651745e-01	-1.447378e-03	0.0	3.646928e-01	-1.920808e-03	0.0	3.642040e-01	-2.386786e-03	0.0	3.637098e-01	-2.846603e-03	0.0	3.632161e-01	-3.306775e-03	0.0	3.627206e-01	-3.764582e-03	0.0	3.622181e-01	-4.214493e-03	0.0	3.617094e-01	-4.657001e-03	0.0	3.612008e-01	-5.099338e-03	0.0	3.606927e-01	-5.541840e-03	0.0	3.601798e-01	-5.978494e-03	0.0	3.596596e-01	-6.406048e-03	0.0	3.591319e-01	-6.823864e-03	0.0	3.585997e-01	-7.235503e-03	0.0	3.580685e-01	-7.647979e-03	0.0	3.575381e-01	-8.061233e-03	0.0	3.570034e-01	-8.468280e-03	0.0	3.564613e-01	-8.865139e-03	0.0	3.558462e-01	-9.296533e-03	0.0	3.552260e-01	-9.720815e-03	0.0	3.546077e-01	-1.014782e-02	0.0	3.539899e-01	-1.057572e-02	0.0	3.533677e-01	-1.099729e-02	0.0	3.527373e-01	-1.140643e-02	0.0	3.520973e-01	-1.180049e-02	0.0	3.514471e-01	-1.217751e-02	0.0	3.507891e-01	-1.254059e-02	0.0	3.501287e-01	-1.289942e-02	0.0	3.494709e-01	-1.326294e-02	0.0	3.488141e-01	-1.362821e-02	0.0	3.481530e-01	-1.398570e-02	0.0	3.474837e-01	-1.432725e-02	0.0	3.468049e-01	-1.464935e-02	0.0	3.461162e-01	-1.494947e-02	0.0	3.454202e-01	-1.523238e-02	0.0	3.447227e-01	-1.551103e-02	0.0	3.440278e-01	-1.579619e-02	0.0	3.433332e-01	-1.608136e-02	0.0	3.426333e-01	-1.635326e-02	0.0	3.419253e-01	-1.660284e-02	0.0	3.412089e-01	-1.682658e-02	0.0	3.404850e-01	-1.702427e-02	0.0	3.397580e-01	-1.720959e-02	0.0	3.390323e-01	-1.739950e-02	0.0	3.383080e-01	-1.759389e-02	0.0	3.375808e-01	-1.777635e-02	0.0	3.368479e-01	-1.793316e-02	0.0	3.361094e-01	-1.805972e-02	0.0	3.353663e-01	-1.815450e-02	0.0	3.346213e-01	-1.823091e-02	0.0	3.338768e-01	-1.830991e-02	0.0	3.331331e-01	-1.839468e-02	0.0	3.323881e-01	-1.846271e-02	0.0	3.316411e-01	-1.849889e-02	0.0	3.308935e-01	-1.850123e-02	0.0	3.301464e-01	-1.848006e-02	0.0	3.293995e-01	-1.846009e-02	0.0	3.286529e-01	-1.844482e-02	0.0	3.279072e-01	-1.841066e-02	0.0	3.271642e-01	-1.834286e-02	0.0	3.264256e-01	-1.823925e-02	0.0	3.256910e-01	-1.811200e-02	0.0	3.249563e-01	-1.798743e-02	0.0	3.242212e-01	-1.786757e-02	0.0	3.234899e-01	-1.772845e-02	0.0	3.227665e-01	-1.755449e-02	0.0	3.220536e-01	-1.734303e-02	0.0	3.213504e-01	-1.710210e-02	0.0	3.206490e-01	-1.685733e-02	0.0	3.199448e-01	-1.662183e-02	0.0	3.192454e-01	-1.637375e-02	0.0	3.185593e-01	-1.609226e-02	0.0	3.178902e-01	-1.577352e-02	0.0	3.172381e-01	-1.542217e-02	0.0	3.165914e-01	-1.506178e-02	0.0	3.159437e-01	-1.470419e-02	0.0	3.153142e-01	-1.431650e-02	0.0	3.146902e-01	-1.392078e-02	0.0	3.140682e-01	-1.352281e-02	0.0	3.134652e-01	-1.309771e-02	0.0	3.128945e-01	-1.263095e-02	0.0	3.123623e-01	-1.212149e-02	0.0	3.118408e-01	-1.160155e-02	0.0	3.113118e-01	-1.109011e-02	0.0	3.108081e-01	-1.055470e-02	0.0	3.103577e-01	-9.974589e-03	0.0	3.099574e-01	-9.359202e-03	0.0	3.095563e-01	-8.745006e-03	0.0	3.091991e-01	-8.105295e-03	0.0	3.088775e-01	-7.447271e-03	0.0	3.085931e-01	-6.773398e-03	0.0	3.083583e-01	-6.080923e-03	0.0	3.082394e-01	-5.362770e-03	0.0	3.082284e-01	-4.634417e-03	0.0	
CELLS 324	972
2	51	52	2	52	53	2	53	54	2	54	55	2	55	56	2	56	57	2	57	58	2	58	59	2	59	60	2	60	61	2	61	62	2	62	63	2	63	64	2	64	65	2	65	66	2	66	67	2	67	68	2	68	69	2	69	70	2	70	71	2	71	72	2	72	73	2	73	74	2	74	75	2	75	76	2	76	77	2	77	78	2	78	79	2	79	80	2	80	81	2	81	82	2	82	83	2	83	84	2	84	85	2	85	86	2	86	87	2	87	88	2	88	89	2	89	90	2	90	91	2	91	92	2	92	93	2	93	94	2	94	95	2	95	96	2	96	97	2	97	98	2	98	99	2	99	100	2	100	101	2	101	102	2	102	103	2	103	104	2	104	105	2	105	106	2	106	107	2	107	108	2	108	109	2	109	110	2	110	111	2	111	112	2	112	113	2	113	114	2	114	115	2	115	116	2	116	117	2	117	118	2	118	119	2	119	120	2	120	121	2	121	122	2	122	123	2	123	124	2	124	125	2	125	126	2	126	127	2	127	128	2	128	129	2	129	130	2	130	131	2	131	132	2	132	133	2	133	134	2	134	135	2	135	136	2	136	137	2	137	138	2	138	139	2	139	140	2	140	141	2	141	142	2	142	143	2	143	144	2	144	145	2	145	146	2	146	147	2	147	148	2	148	149	2	149	150	2	150	151	2	151	152	2	152	153	2	153	154	2	154	155	2	155	156	2	156	157	2	157	158	2	158	159	2	159	160	2	160	161	2	161	162	2	162	163	2	163	164	2	164	165	2	165	166	2	166	167	2	167	168	2	168	169	2	169	170	2	170	171	2	171	172	2	172	173	2	173	174	2	174	175	2	175	176	2	176	177	2	177	178	2	178	179	2	179	180	2	180	181	2	181	182	2	182	183	2	183	184	2	184	185	2	185	186	2	186	187	2	187	188	2	188	189	2	189	190	2	190	191	2	191	192	2	192	193	2	193	194	2	194	195	2	195	196	2	196	197	2	197	198	2	198	199	2	199	200	2	200	201	2	201	202	2	202	203	2	203	204	2	204	205	2	205	206	2	206	207	2	207	208	2	208	209	2	209	210	2	210	211	2	211	212	2	212	213	2	213	214	2	214	215	2	215	216	2	216	217	2	217	218	2	218	219	2	219	220	2	220	221	2	221	222	2	222	223	2	223	224	2	224	225	2	225	226	2	226	227	2	227	228	2	228	229	2	229	230	2	230	231	2	231	232	2	232	233	2	233	234	2	234	235	2	235	236	2	236	237	2	237	238	2	238	239	2	239	240	2	240	241	2	241	242	2	242	243	2	243	244	2	244	245	2	245	246	2	246	247	2	247	248	2	248	249	2	249	250	2	250	251	2	251	252	2	252	253	2	253	254	2	254	255	2	255	256	2	256	257	2	257	258	2	258	259	2	259	260	2	260	261	2	261	262	2	262	263	2	263	264	2	264	265	2	265	266	2	266	267	2	267	268	2	268	269	2	269	270	2	270	271	2	271	272	2	272	273	2	273	274	2	274	275	2	275	276	2	276	277	2	277	278	2	278	279	2	279	280	2	280	281	2	281	282	2	282	283	2	283	284	2	284	285	2	285	286	2	286	287	2	287	288	2	288	289	2	289	290	2	290	291	2	291	292	2	292	293	2	293	294	2	294	295	2	295	296	2	296	297	2	297	298	2	298	299	2	299	300	2	300	301	2	301	302	2	302	303	2	303	304	2	304	305	2	305	306	2	306	307	2	307	308	2	308	309	2	309	310	2	310	311	2	311	312	2	312	313	2	313	314	2	314	315	2	315	316	2	316	317	2	317	318	2	318	319	2	319	320	2	320	321	2	321	322	2	322	323	2	323	49	2	49	0	2	0	1	2	1	3	2	3	5	2	5	6	2	6	7	2	7	8	2	8	9	2	9	10	2	10	11	2	11	13	2	13	17	2	17	19	2	19	22	2	22	28	2	28	36	2	36	43	2	43	44	2	44	45	2	45	46	2	46	47	2	47	48	2	48	42	2	42	41	2	41	40	2	40	39	2	39	38	2	38	37	2	37	35	2	35	34	2	34	33	2	33	32	2	32	31	2	31	30	2	30	29	2	29	27	2	27	26	2	26	25	2	25	24	2	24	23	2	23	21	2	21	20	2	20	18	2	18	16	2	16	15	2	15	14	2	14	12	2	12	4	2	4	50	2	50	2	2	2	51	
CELL_TYPES 324
3	3	3	3	3	3	3	3	3	3	3	3	3	3	3	3	3	3	3	3	3	3	3	3	3	3	3	3	3	3	3	3	3	3	3	3	3	3	3	3	3	3	3	3	3	3	3	3	3	3	3	3	3	3	3	3	3	3	3	3	3	3	3	3	3	3	3	3	3	3	3	3	3	3	3	3	3	3	3	3	3	3	3	3	3	3	3	3	3	3	3	3	3	3	3	3	3	3	3	3	3	3	3	3	3	3	3	3	3	3	3	3	3	3	3	3	3	3	3	3	3	3	3	3	3	3	3	3	3	3	3	3	3	3	3	3	3	3	3	3	3	3	3	3	3	3	3	3	3	3	3	3	3	3	3	3	3	3	3	3	3	3	3	3	3	3	3	3	3	3	3	3	3	3	3	3	3	3	3	3	3	3	3	3	3	3	3	3	3	3	3	3	3	3	3	3	3	3	3	3	3	3	3	3	3	3	3	3	3	3	3	3	3	3	3	3	3	3	3	3	3	3	3	3	3	3	3	3	3	3	3	3	3	3	3	3	3	3	3	3	3	3	3	3	3	3	3	3	3	3	3	3	3	3	3	3	3	3	3	3	3	3	3	3	3	3	3	3	3	3	3	3	3	3	3	3	3	3	3	3	3	3	3	3	3	3	3	3	3	3	3	3	3	3	3	3	3	3	3	3	3	3	3	3	3	3	3	3	3	3	3	3	3	3	3	3	3	3	3	3	3	3	3	3	
POINT_DATA 324

SCALARS Density float 1
LOOKUP_TABLE default
1.641236e+00	1.856407e+00	1.760134e+00	1.980419e+00	1.752358e+00	2.057796e+00	2.300044e+00	3.988826e+00	1.424065e-01	4.955252e-01	7.693891e-01	1.309611e+00	1.755734e+00	2.060491e+00	1.758477e+00	1.756346e+00	1.752695e+00	2.575101e-01	1.751651e+00	4.813933e-01	1.752712e+00	1.749829e+00	5.451604e-01	1.742621e+00	1.740401e+00	1.739700e+00	1.734303e+00	1.722949e+00	7.250464e-01	1.716767e+00	1.713749e+00	1.705620e+00	1.691959e+00	1.678530e+00	1.668407e+00	1.656482e+00	9.370858e-01	1.637675e+00	1.597512e+00	1.592901e+00	1.583659e+00	1.556589e+00	1.526520e+00	1.101814e+00	1.229449e+00	1.334836e+00	1.374448e+00	1.430921e+00	1.485086e+00	1.479696e+00	1.757228e+00	1.757716e+00	1.755833e+00	1.753992e+00	1.748436e+00	1.746396e+00	1.748059e+00	1.749724e+00	1.750194e+00	1.748049e+00	1.744710e+00	1.741658e+00	1.737470e+00	1.733553e+00	1.732605e+00	1.733206e+00	1.732290e+00	1.729002e+00	1.725143e+00	1.721907e+00	1.717537e+00	1.714437e+00	1.712757e+00	1.711910e+00	1.710940e+00	1.709559e+00	1.706824e+00	1.703286e+00	1.699247e+00	1.695036e+00	1.690700e+00	1.687785e+00	1.686383e+00	1.685918e+00	1.685395e+00	1.684675e+00	1.683615e+00	1.682340e+00	1.682204e+00	1.679117e+00	1.674826e+00	1.670094e+00	1.665932e+00	1.658224e+00	1.654150e+00	1.652144e+00	1.651662e+00	1.653634e+00	1.653556e+00	1.652535e+00	1.650776e+00	1.648381e+00	1.645080e+00	1.640552e+00	1.635281e+00	1.629991e+00	1.625363e+00	1.621717e+00	1.619926e+00	1.618662e+00	1.615725e+00	1.611271e+00	1.606678e+00	1.602972e+00	1.600947e+00	1.599637e+00	1.597642e+00	1.594330e+00	1.589735e+00	1.583954e+00	1.578183e+00	1.573500e+00	1.570166e+00	1.568389e+00	1.567240e+00	1.565879e+00	1.563649e+00	1.560434e+00	1.556319e+00	1.551103e+00	1.544661e+00	1.537300e+00	1.529754e+00	1.522646e+00	1.516820e+00	1.512511e+00	1.509182e+00	1.506242e+00	1.502601e+00	1.497184e+00	1.490035e+00	1.480632e+00	1.469079e+00	1.453546e+00	1.434876e+00	1.405490e+00	1.367468e+00	1.286053e+00	1.011265e+00	1.567113e+00	1.744397e+00	1.469291e+00	1.290588e+00	1.458535e+00	1.485058e+00	1.473024e+00	1.474893e+00	1.473633e+00	1.470417e+00	1.470424e+00	1.471725e+00	1.473797e+00	1.474712e+00	1.475799e+00	1.476193e+00	1.477751e+00	1.478604e+00	1.477170e+00	1.477230e+00	1.477407e+00	1.476697e+00	1.475423e+00	1.474349e+00	1.472908e+00	1.471430e+00	1.469844e+00	1.468206e+00	1.466322e+00	1.464290e+00	1.462236e+00	1.460099e+00	1.457824e+00	1.455500e+00	1.453011e+00	1.450368e+00	1.447600e+00	1.444605e+00	1.441529e+00	1.438693e+00	1.435935e+00	1.433294e+00	1.430777e+00	1.428189e+00	1.425303e+00	1.422465e+00	1.418889e+00	1.414918e+00	1.411231e+00	1.407750e+00	1.404410e+00	1.401544e+00	1.398499e+00	1.395723e+00	1.392381e+00	1.388378e+00	1.383485e+00	1.378188e+00	1.373350e+00	1.369339e+00	1.365157e+00	1.361354e+00	1.358643e+00	1.356498e+00	1.355464e+00	1.353992e+00	1.351138e+00	1.348923e+00	1.342985e+00	1.331329e+00	1.323390e+00	1.319056e+00	1.317936e+00	1.317657e+00	1.314731e+00	1.310572e+00	1.306744e+00	1.305282e+00	1.304850e+00	1.306735e+00	1.306189e+00	1.303808e+00	1.303103e+00	1.303517e+00	1.304408e+00	1.302672e+00	1.303003e+00	1.304111e+00	1.306552e+00	1.305978e+00	1.303833e+00	1.303611e+00	1.306766e+00	1.310543e+00	1.314063e+00	1.314982e+00	1.313248e+00	1.312536e+00	1.317077e+00	1.320715e+00	1.323762e+00	1.323372e+00	1.319528e+00	1.317040e+00	1.316183e+00	1.320316e+00	1.326729e+00	1.332144e+00	1.334208e+00	1.333149e+00	1.328248e+00	1.324441e+00	1.322641e+00	1.324907e+00	1.330849e+00	1.335329e+00	1.334849e+00	1.331716e+00	1.327329e+00	1.321514e+00	1.319536e+00	1.323407e+00	1.325663e+00	1.326642e+00	1.324231e+00	1.316953e+00	1.309260e+00	1.305623e+00	1.305795e+00	1.304653e+00	1.307087e+00	1.303760e+00	1.294380e+00	1.286573e+00	1.282462e+00	1.280822e+00	1.276178e+00	1.269737e+00	1.258571e+00	1.246489e+00	1.237691e+00	1.231954e+00	1.226883e+00	1.215001e+00	1.199217e+00	1.180992e+00	1.166601e+00	1.152348e+00	1.147622e+00	1.134260e+00	1.111148e+00	1.082170e+00	1.056933e+00	1.033067e+00	1.007849e+00	9.772192e-01	9.454936e-01	9.093828e-01	8.780833e-01	8.006463e-01	7.087899e-01	6.903429e-01	7.491908e-01	7.445592e-01	7.067552e-01	7.614839e-01	8.917235e-01	9.638821e-01	9.565938e-01	9.742523e-01	1.009440e+00	9.979423e-01	1.022010e+00	1.139954e+00	1.296164e+00	
SCALARS X-Momentum float 1
LOOKUP_TABLE default
0.000000e+00	0.000000e+00	0.000000e+00	0.000000e+00	0.000000e+00	0.000000e+00	0.000000e+00	0.000000e+00	0.000000e+00	0.000000e+00	0.000000e+00	0.000000e+00	0.000000e+00	0.000000e+00	0.000000e+00	0.000000e+00	0.000000e+00	0.000000e+00	0.000000e+00	0.000000e+00	0.000000e+00	0.000000e+00	0.000000e+00	0.000000e+00	0.000000e+00	0.000000e+00	0.000000e+00	0.000000e+00	0.000000e+00	0.000000e+00	0.000000e+00	0.000000e+00	0.000000e+00	0.000000e+00	0.000000e+00	0.000000e+00	0.000000e+00	0.000000e+00	0.000000e+00	0.000000e+00	0.000000e+00	0.000000e+00	0.000000e+00	0.000000e+00	0.000000e+00	0.000000e+00	0.000000e+00	0.000000e+00	0.000000e+00	0.000000e+00	0.000000e+00	0.000000e+00	0.000000e+00	0.000000e+00	0.000000e+00	0.000000e+00	0.000000e+00	0.000000e+00	0.000000e+00	0.000000e+00	0.000000e+00	0.000000e+00	0.000000e+00	0.000000e+00	0.000000e+00	0.000000e+00	0.000000e+00	0.000000e+00	0.000000e+00	0.000000e+00	0.000000e+00	0.000000e+00	0.000000e+00	0.000000e+00	0.000000e+00	0.000000e+00	0.000000e+00	0.000000e+00	0.000000e+00	0.000000e+00	0.000000e+00	0.000000e+00	0.000000e+00	0.000000e+00	0.000000e+00	0.000000e+00	0.000000e+00	0.000000e+00	0.000000e+00	0.000000e+00	0.000000e+00	0.000000e+00	0.000000e+00	0.000000e+00	0.000000e+00	0.000000e+00	0.000000e+00	0.000000e+00	0.000000e+00	0.000000e+00	0.000000e+00	0.000000e+00	0.000000e+00	0.000000e+00	0.000000e+00	0.000000e+00	0.000000e+00	0.000000e+00	0.000000e+00	0.000000e+00	0.000000e+00	0.000000e+00	0.000000e+00	0.000000e+00	0.000000e+00	0.000000e+00	0.000000e+00	0.000000e+00	0.000000e+00	0.000000e+00	0.000000e+00	0.000000e+00	0.000000e+00	0.000000e+00	0.000000e+00	0.000000e+00	0.000000e+00	0.000000e+00	0.000000e+00	0.000000e+00	0.000000e+00	0.000000e+00	0.000000e+00	0.000000e+00	0.000000e+00	0.000000e+00	0.000000e+00	0.000000e+00	0.000000e+00	0.000000e+00	0.000000e+00	0.000000e+00	0.000000e+00	0.000000e+00	0.000000e+00	0.000000e+00	0.000000e+00	0.000000e+00	0.000000e+00	0.000000e+00	0.000000e+00	0.000000e+00	0.000000e+00	0.000000e+00	0.000000e+00	0.000000e+00	0.000000e+00	0.000000e+00	0.000000e+00	0.000000e+00	0.000000e+00	0.000000e+00	0.000000e+00	0.000000e+00	0.000000e+00	0.000000e+00	0.000000e+00	0.000000e+00	0.000000e+00	0.000000e+00	0.000000e+00	0.000000e+00	0.000000e+00	0.000000e+00	0.000000e+00	0.000000e+00	0.000000e+00	0.000000e+00	0.000000e+00	0.000000e+00	0.000000e+00	0.000000e+00	0.000000e+00	0.000000e+00	0.000000e+00	0.000000e+00	0.000000e+00	0.000000e+00	0.000000e+00	0.000000e+00	0.000000e+00	0.000000e+00	0.000000e+00	0.000000e+00	0.000000e+00	0.000000e+00	0.000000e+00	0.000000e+00	0.000000e+00	0.000000e+00	0.000000e+00	0.000000e+00	0.000000e+00	0.000000e+00	0.000000e+00	0.000000e+00	0.000000e+00	0.000000e+00	0.000000e+00	0.000000e+00	0.000000e+00	0.000000e+00	0.000000e+00	0.000000e+00	0.000000e+00	0.000000e+00	0.000000e+00	0.000000e+00	0.000000e+00	0.000000e+00	0.000000e+00	0.000000e+00	0.000000e+00	0.000000e+00	0.000000e+00	0.000000e+00	0.000000e+00	0.000000e+00	0.000000e+00	0.000000e+00	0.000000e+00	0.000000e+00	0.000000e+00	0.000000e+00	0.000000e+00	0.000000e+00	0.000000e+00	0.000000e+00	0.000000e+00	0.000000e+00	0.000000e+00	0.000000e+00	0.000000e+00	0.000000e+00	0.000000e+00	0.000000e+00	0.000000e+00	0.000000e+00	0.000000e+00	0.000000e+00	0.000000e+00	0.000000e+00	0.000000e+00	0.000000e+00	0.000000e+00	0.000000e+00	0.000000e+00	0.000000e+00	0.000000e+00	0.000000e+00	0.000000e+00	0.000000e+00	0.000000e+00	0.000000e+00	0.000000e+00	0.000000e+00	0.000000e+00	0.000000e+00	0.000000e+00	0.000000e+00	0.000000e+00	0.000000e+00	0.000000e+00	0.000000e+00	0.000000e+00	0.000000e+00	0.000000e+00	0.000000e+00	0.000000e+00	0.000000e+00	0.000000e+00	0.000000e+00	0.000000e+00	0.000000e+00	0.000000e+00	0.000000e+00	0.000000e+00	0.000000e+00	0.000000e+00	0.000000e+00	0.000000e+00	0.000000e+00	0.000000e+00	0.000000e+00	0.000000e+00	0.000000e+00	0.000000e+00	0.000000e+00	0.000000e+00	0.000000e+00	0.000000e+00	0.000000e+00	0.000000e+00	0.000000e+00	0.000000e+00	0.000000e+00	0.000000e+00	0.000000e+00	0.000000e+00	0.000000e+00	0.000000e+00	0.000000e+00	0.000000e+00	0.000000e+00	0.000000e+00	0.000000e+00	0.000000e+00	0.000000e+00	0.000000e+00	0.000000e+00	0.000000e+00	0.000000e+00	0.000000e+00	0.000000e+00	
SCALARS Y-Momentum float 1
LOOKUP_TABLE default
-4.869351e+02	-5.507785e+02	-5.222071e+02	-5.875679e+02	-5.199002e+02	-6.105341e+02	-6.823502e+02	-1.181843e+03	-4.263611e+01	-1.475656e+02	-2.273567e+02	-3.881616e+02	-5.209016e+02	-6.106208e+02	-5.217155e+02	-5.210833e+02	-5.200001e+02	-7.646725e+01	-5.196903e+02	-1.424083e+02	-5.200050e+02	-5.191495e+02	-1.613607e+02	-5.170107e+02	-5.163522e+02	-5.161438e+02	-5.145425e+02	-5.111736e+02	-2.152181e+02	-5.093391e+02	-5.084433e+02	-5.060312e+02	-5.019776e+02	-4.979926e+02	-4.949883e+02	-4.914499e+02	-2.781482e+02	-4.858698e+02	-4.739544e+02	-4.725859e+02	-4.698436e+02	-4.618135e+02	-4.528960e+02	-3.269952e+02	-3.648489e+02	-3.961270e+02	-4.077983e+02	-4.245415e+02	-4.406097e+02	-4.390101e+02	-5.213450e+02	-5.214899e+02	-5.209312e+02	-5.203851e+02	-5.187367e+02	-5.181314e+02	-5.186248e+02	-5.191187e+02	-5.192583e+02	-5.186217e+02	-5.176311e+02	-5.167256e+02	-5.154832e+02	-5.143210e+02	-5.140399e+02	-5.142182e+02	-5.139465e+02	-5.129709e+02	-5.118260e+02	-5.108660e+02	-5.095694e+02	-5.086497e+02	-5.081513e+02	-5.079000e+02	-5.076122e+02	-5.072025e+02	-5.063909e+02	-5.053412e+02	-5.041430e+02	-5.028937e+02	-5.016072e+02	-5.007423e+02	-5.003265e+02	-5.001884e+02	-5.000332e+02	-4.998197e+02	-4.995053e+02	-4.991268e+02	-4.990863e+02	-4.981706e+02	-4.968977e+02	-4.954938e+02	-4.942588e+02	-4.919721e+02	-4.907634e+02	-4.901682e+02	-4.900250e+02	-4.906102e+02	-4.905868e+02	-4.902839e+02	-4.897619e+02	-4.890514e+02	-4.880720e+02	-4.867287e+02	-4.851647e+02	-4.835954e+02	-4.822224e+02	-4.811406e+02	-4.806092e+02	-4.802343e+02	-4.793628e+02	-4.780413e+02	-4.766786e+02	-4.755793e+02	-4.749785e+02	-4.745896e+02	-4.739978e+02	-4.730152e+02	-4.716520e+02	-4.699366e+02	-4.682244e+02	-4.668351e+02	-4.658460e+02	-4.653188e+02	-4.649780e+02	-4.645741e+02	-4.639125e+02	-4.629585e+02	-4.617378e+02	-4.601901e+02	-4.582789e+02	-4.560952e+02	-4.538565e+02	-4.517475e+02	-4.500192e+02	-4.487407e+02	-4.477531e+02	-4.468808e+02	-4.458006e+02	-4.441934e+02	-4.420725e+02	-4.392828e+02	-4.358550e+02	-4.312468e+02	-4.257076e+02	-4.169891e+02	-4.057085e+02	-3.815539e+02	-3.000281e+02	-4.649404e+02	-5.175380e+02	-4.359177e+02	-3.828993e+02	-4.327268e+02	-4.405959e+02	-4.370255e+02	-4.375800e+02	-4.372063e+02	-4.362523e+02	-4.362541e+02	-4.366402e+02	-4.372551e+02	-4.375263e+02	-4.378489e+02	-4.379656e+02	-4.384279e+02	-4.386809e+02	-4.382554e+02	-4.382732e+02	-4.383258e+02	-4.381150e+02	-4.377371e+02	-4.374184e+02	-4.369909e+02	-4.365524e+02	-4.360819e+02	-4.355958e+02	-4.350370e+02	-4.344340e+02	-4.338249e+02	-4.331906e+02	-4.325157e+02	-4.318263e+02	-4.310878e+02	-4.303036e+02	-4.294825e+02	-4.285937e+02	-4.276814e+02	-4.268397e+02	-4.260215e+02	-4.252381e+02	-4.244912e+02	-4.237235e+02	-4.228671e+02	-4.220252e+02	-4.209643e+02	-4.197860e+02	-4.186923e+02	-4.176592e+02	-4.166684e+02	-4.158180e+02	-4.149147e+02	-4.140910e+02	-4.130996e+02	-4.119120e+02	-4.104601e+02	-4.088888e+02	-4.074533e+02	-4.062631e+02	-4.050223e+02	-4.038941e+02	-4.030898e+02	-4.024535e+02	-4.021467e+02	-4.017099e+02	-4.008629e+02	-4.002058e+02	-3.984440e+02	-3.949860e+02	-3.926308e+02	-3.913448e+02	-3.910125e+02	-3.909296e+02	-3.900617e+02	-3.888276e+02	-3.876918e+02	-3.872581e+02	-3.871299e+02	-3.876890e+02	-3.875272e+02	-3.868208e+02	-3.866114e+02	-3.867344e+02	-3.869987e+02	-3.864838e+02	-3.865818e+02	-3.869108e+02	-3.876349e+02	-3.874646e+02	-3.868283e+02	-3.867623e+02	-3.876984e+02	-3.888190e+02	-3.898636e+02	-3.901363e+02	-3.896219e+02	-3.894106e+02	-3.907579e+02	-3.918374e+02	-3.927414e+02	-3.926260e+02	-3.914853e+02	-3.907474e+02	-3.904929e+02	-3.917195e+02	-3.936221e+02	-3.952286e+02	-3.958410e+02	-3.955268e+02	-3.940729e+02	-3.929433e+02	-3.924096e+02	-3.930819e+02	-3.948448e+02	-3.961738e+02	-3.960317e+02	-3.951019e+02	-3.938004e+02	-3.920754e+02	-3.914884e+02	-3.926367e+02	-3.933061e+02	-3.935968e+02	-3.928815e+02	-3.907220e+02	-3.884397e+02	-3.873606e+02	-3.874115e+02	-3.870727e+02	-3.877947e+02	-3.868075e+02	-3.840246e+02	-3.817084e+02	-3.804887e+02	-3.800020e+02	-3.786240e+02	-3.767128e+02	-3.734001e+02	-3.698155e+02	-3.672055e+02	-3.655025e+02	-3.639982e+02	-3.604726e+02	-3.557894e+02	-3.503824e+02	-3.461128e+02	-3.418845e+02	-3.404826e+02	-3.365182e+02	-3.296614e+02	-3.210638e+02	-3.135763e+02	-3.064969e+02	-2.990156e+02	-2.899291e+02	-2.805175e+02	-2.698022e+02	-2.605197e+02	-2.375495e+02	-2.102951e+02	-2.048179e+02	-2.222762e+02	-2.209019e+02	-2.096857e+02	-2.259232e+02	-2.645641e+02	-2.859730e+02	-2.838109e+02	-2.890501e+02	-2.994901e+02	-2.960794e+02	-3.032194e+02	-3.382132e+02	-3.845583e+02	
SCALARS Energy float 1
LOOKUP_TABLE default