# vtk DataFile Version 3.0
vtk output
ASCII

DATASET UNSTRUCTURED_GRID
POINTS 720 float
0 0.0132566635048755 0.0  0 0.0215595628224656 0.0  0 0.0274570641349396 0.0  0 0.0322949840180256 0.0  0 0.0364971452930072 0.0  0 0.040263100183086 0.0  0 0.043705753147241 0.0  0 0.0468963589203033 0.0  0 0.0498833048403597 0.0  0 0.0527012307599225 0.0  0 0.0553759455488116 0.0  0 0.0579272903495346 0.0  0 0.0603709084663601 0.0  0 0.0627193926219633 0.0  0 0.0649830580434803 0.0  0 0.0671704805289993 0.0  0 0.0692888813325126 0.0  0 0.0713444090179837 0.0  0 0.0733423501119217 0.0  0 0.0752872893771189 0.0  -0.00230199545956533 0.0130552649986753 0.0  -0.00374377879541686 0.0212320246191179 0.0  -0.00476786915111629 0.027039929635042 0.0  -0.00560796512251279 0.031804350644357 0.0  -0.00633766277017588 0.0359426716473665 0.0  -0.00699161397401393 0.0396514132206104 0.0  -0.0075894243875791 0.0430417645506406 0.0  -0.00814346726572496 0.0461838978527579 0.0  -0.00866214498153243 0.0491254653526577 0.0  -0.00915147268226491 0.0519005806456571 0.0  -0.00961593203113429 0.0545346605068515 0.0  -0.0100589684063799 0.057047244647211 0.0  -0.0104832982392805 0.0594537387140618 0.0  -0.0108911082331806 0.0617665441183261 0.0  -0.0112841896084747 0.0639958193756617 0.0  -0.0116640315368727 0.066150009998514 0.0  -0.012031887975971 0.0682362275338013 0.0  -0.012388826612697 0.0702605271349845 0.0  -0.0127357654427452 0.0722281150143563 0.0  -0.0130735006018195 0.0741435062818604 0.0  -0.00453404595195767 0.0124571888717733 0.0  -0.00737380476657845 0.0202593620916412 0.0  -0.00939086901073412 0.0258012005560482 0.0  -0.0110455350625453 0.0303473581701375 0.0  -0.0124827588640921 0.03429609811159 0.0  -0.0137707912953548 0.0378349381320097 0.0  -0.0149482479555757 0.0410699737183529 0.0  -0.0160394993993741 0.0440681624191364 0.0  -0.0170610950710579 0.0468749734589 0.0  -0.0180248824979478 0.0495229576514345 0.0  -0.018939688833399 0.0520363674012605 0.0  -0.0198123001478155 0.0544338472835805 0.0  -0.0206480667663653 0.0567300971959801 0.0  -0.0214512956538628 0.058936950427033 0.0  -0.0222255148257714 0.0610641001195608 0.0  -0.0229736573777824 0.0631196048877442 0.0  -0.0236981931242212 0.0651102504906726 0.0  -0.0244012249978159 0.0670418146885309 0.0  -0.0250845610971208 0.0689192651912694 0.0  -0.0257497695033633 0.070746910266652 0.0  -0.00662833175243773 0.0114806073646442 0.0  -0.0107797814112328 0.0186711290987418 0.0  -0.0137285320674698 0.0237785150541963 0.0  -0.0161474920090128 0.0279682765744227 0.0  -0.0182485726465036 0.0316074549893559 0.0  -0.020131550091543 0.0348688675936704 0.0  -0.0218528765736205 0.0378502925170424 0.0  -0.0234481794601516 0.0406134381699756 0.0  -0.0249416524201799 0.0432002092164748 0.0  -0.0263506153799612 0.0456406046487988 0.0  -0.0276879727744058 0.0479569756038546 0.0  -0.0289636451747673 0.0501665050150942 0.0  -0.0301854542331801 0.0522827403814129 0.0  -0.0313596963109816 0.0543165873205505 0.0  -0.0324915290217401 0.0562769790812526 0.0  -0.0335852402644996 0.0581713425225214 0.0  -0.0346444406662563 0.0600059314337613 0.0  -0.0356722045089919 0.0617860706275615 0.0  -0.0366711750559608 0.0635163383701767 0.0  -0.0376436446885595 0.0652007051826553 0.0  -0.00852121904671768 0.010155193412208 0.0  -0.0138582198525395 0.0165155832962243 0.0  -0.0176490606243078 0.0210333314049319 0.0  -0.0207588155818117 0.0247393930476247 0.0  -0.0234599127832744 0.0279584353414141 0.0  -0.0258806219252555 0.0308433241579957 0.0  -0.028093516595065 0.0334805493307737 0.0  -0.0301443984533838 0.0359246951534114 0.0  -0.0320643702815998 0.0382128284773676 0.0  -0.0338756981477093 0.0403714849691696 0.0  -0.0355949716734525 0.0424204353701262 0.0  -0.0372349444993955 0.0443748788772006 0.0  -0.0388056719476965 0.0462467989566996 0.0  -0.0403152484644633 0.0480458421938524 0.0  -0.0417703045498903 0.0497799105110861 0.0  -0.0431763526207317 0.0514555733508714 0.0  -0.04453803440958 0.0530783625147016 0.0  -0.0458593021371685 0.0546529880758339 0.0  -0.0471435539172354 0.0561834997485242 0.0  -0.0483937367784971 0.0576734096648324 0.0  -0.010155193412208 0.00852121904671768 0.0  -0.0165155832962243 0.0138582198525395 0.0  -0.0210333314049319 0.0176490606243078 0.0  -0.0247393930476247 0.0207588155818117 0.0  -0.0279584353414141 0.0234599127832744 0.0  -0.0308433241579957 0.0258806219252555 0.0  -0.0334805493307737 0.028093516595065 0.0  -0.0359246951534114 0.0301443984533838 0.0  -0.0382128284773676 0.0320643702815998 0.0  -0.0403714849691696 0.0338756981477093 0.0  -0.0424204353701262 0.0355949716734526 0.0  -0.0443748788772006 0.0372349444993955 0.0  -0.0462467989566996 0.0388056719476965 0.0  -0.0480458421938524 0.0403152484644633 0.0  -0.0497799105110861 0.0417703045498903 0.0  -0.0514555733508714 0.0431763526207317 0.0  -0.0530783625147016 0.04453803440958 0.0  -0.0546529880758339 0.0458593021371685 0.0  -0.0561834997485242 0.0471435539172354 0.0  -0.0576734096648324 0.0483937367784971 0.0  -0.0114806073646442 0.00662833175243773 0.0  -0.0186711290987418 0.0107797814112328 0.0  -0.0237785150541963 0.0137285320674698 0.0  -0.0279682765744226 0.0161474920090128 0.0  -0.0316074549893559 0.0182485726465036 0.0  -0.0348688675936704 0.020131550091543 0.0  -0.0378502925170424 0.0218528765736205 0.0  -0.0406134381699756 0.0234481794601517 0.0  -0.0432002092164748 0.0249416524201799 0.0  -0.0456406046487987 0.0263506153799613 0.0  -0.0479569756038546 0.0276879727744058 0.0  -0.0501665050150942 0.0289636451747673 0.0  -0.0522827403814129 0.0301854542331801 0.0  -0.0543165873205505 0.0313596963109816 0.0  -0.0562769790812526 0.0324915290217401 0.0  -0.0581713425225214 0.0335852402644996 0.0  -0.0600059314337613 0.0346444406662563 0.0  -0.0617860706275615 0.0356722045089919 0.0  -0.0635163383701766 0.0366711750559609 0.0  -0.0652007051826553 0.0376436446885595 0.0  -0.0124571888717733 0.00453404595195767 0.0  -0.0202593620916412 0.00737380476657845 0.0  -0.0258012005560482 0.00939086901073412 0.0  -0.0303473581701375 0.0110455350625453 0.0  -0.03429609811159 0.0124827588640921 0.0  -0.0378349381320097 0.0137707912953548 0.0  -0.0410699737183528 0.0149482479555757 0.0  -0.0440681624191364 0.0160394993993741 0.0  -0.0468749734589 0.0170610950710579 0.0  -0.0495229576514345 0.0180248824979478 0.0  -0.0520363674012605 0.018939688833399 0.0  -0.0544338472835805 0.0198123001478155 0.0  -0.0567300971959801 0.0206480667663653 0.0  -0.058936950427033 0.0214512956538628 0.0  -0.0610641001195608 0.0222255148257714 0.0  -0.0631196048877442 0.0229736573777824 0.0  -0.0651102504906726 0.0236981931242212 0.0  -0.0670418146885309 0.0244012249978159 0.0  -0.0689192651912694 0.0250845610971208 0.0  -0.070746910266652 0.0257497695033633 0.0  -0.0130552649986753 0.00230199545956533 0.0  -0.0212320246191179 0.00374377879541686 0.0  -0.027039929635042 0.0047678691511163 0.0  -0.031804350644357 0.0056079651225128 0.0  -0.0359426716473665 0.00633766277017588 0.0  -0.0396514132206104 0.00699161397401394 0.0  -0.0430417645506406 0.00758942438757911 0.0  -0.0461838978527579 0.00814346726572496 0.0  -0.0491254653526577 0.00866214498153244 0.0  -0.0519005806456571 0.00915147268226492 0.0  -0.0545346605068515 0.0096159320311343 0.0  -0.057047244647211 0.0100589684063799 0.0  -0.0594537387140618 0.0104832982392805 0.0  -0.0617665441183261 0.0108911082331806 0.0  -0.0639958193756617 0.0112841896084747 0.0  -0.066150009998514 0.0116640315368728 0.0  -0.0682362275338013 0.012031887975971 0.0  -0.0702605271349845 0.012388826612697 0.0  -0.0722281150143563 0.0127357654427452 0.0  -0.0741435062818604 0.0130735006018196 0.0  -0.0132566635048755 8.11736526430963e-19 0.0  -0.0215595628224656 1.32014248007744e-18 0.0  -0.0274570641349396 1.68126028534187e-18 0.0  -0.0322949840180256 1.9774974403095e-18 0.0  -0.0364971452930072 2.23480560805486e-18 0.0  -0.040263100183086 2.46540383814827e-18 0.0  -0.043705753147241 2.67620553480465e-18 0.0  -0.0468963589203033 2.87157379217074e-18 0.0  -0.0498833048403597 3.05447148018191e-18 0.0  -0.0527012307599225 3.22701967806326e-18 0.0  -0.0553759455488116 3.39079872330551e-18 0.0  -0.0579272903495346 3.54702353549185e-18 0.0  -0.0603709084663601 3.69665199074729e-18 0.0  -0.0627193926219633 3.84045517094767e-18 0.0  -0.0649830580434803 3.97906470158774e-18 0.0  -0.0671704805289993 4.11300569885143e-18 0.0  -0.0692888813325126 4.24272033701812e-18 0.0  -0.0713444090179837 4.36858510704667e-18 0.0  -0.0733423501119217 4.49092371532547e-18 0.0  -0.0752872893771189 4.61001689760846e-18 0.0  -0.0130552649986753 -0.00230199545956532 0.0  -0.0212320246191179 -0.00374377879541686 0.0  -0.027039929635042 -0.00476786915111629 0.0  -0.031804350644357 -0.00560796512251279 0.0  -0.0359426716473665 -0.00633766277017588 0.0  -0.0396514132206104 -0.00699161397401393 0.0  -0.0430417645506406 -0.0075894243875791 0.0  -0.0461838978527579 -0.00814346726572496 0.0  -0.0491254653526577 -0.00866214498153243 0.0  -0.0519005806456571 -0.00915147268226491 0.0  -0.0545346605068515 -0.00961593203113429 0.0  -0.057047244647211 -0.0100589684063798 0.0  -0.0594537387140618 -0.0104832982392805 0.0  -0.0617665441183261 -0.0108911082331806 0.0  -0.0639958193756617 -0.0112841896084747 0.0  -0.066150009998514 -0.0116640315368727 0.0  -0.0682362275338013 -0.012031887975971 0.0  -0.0702605271349845 -0.012388826612697 0.0  -0.0722281150143563 -0.0127357654427452 0.0  -0.0741435062818604 -0.0130735006018195 0.0  -0.0124571888717733 -0.00453404595195767 0.0  -0.0202593620916412 -0.00737380476657845 0.0  -0.0258012005560482 -0.00939086901073412 0.0  -0.0303473581701375 -0.0110455350625453 0.0  -0.03429609811159 -0.0124827588640921 0.0  -0.0378349381320097 -0.0137707912953548 0.0  -0.0410699737183529 -0.0149482479555757 0.0  -0.0440681624191364 -0.0160394993993741 0.0  -0.0468749734589 -0.0170610950710579 0.0  -0.0495229576514345 -0.0180248824979478 0.0  -0.0520363674012605 -0.018939688833399 0.0  -0.0544338472835805 -0.0198123001478155 0.0  -0.056
[...]
POINT_DATA 720
SCALARS PT/PT_inf float
LOOKUP_TABLE default
0.698009389890926 0.698009389890926 0.698009389890926 0.698009389890926 0.698009389890926 0.698009389890926 0.698009389890926 0.698009389890926 0.698009389890926 0.698009389890926 0.698009389890926 0.698009389890926 0.698009389890926 0.698009389890926 0.698009389890926 0.698009389890926 0.698009389890926 0.698009389890926 0.698009389890926 0.698009389890926 0.694492112334761 0.694492112334761 0.692712756031976 0.690675510047994 0.688962707344445 0.688962707344445 0.687850254855413 0.687850254855413 0.687338566967892 0.687338566967892 0.687338566967892 0.68674007292021 0.68674007292021 0.685581153093907 0.685581153093907 0.685581153093907 0.683829540293015 0.683829540293015 0.683829540293015 0.681713338484353 0.692712756031976 0.688962707344445 0.687338566967892 0.685581153093907 0.683829540293015 0.681713338484353 0.679568812653673 0.677576970007599 0.675971570273697 0.674914646755504 0.673983073493423 0.672582360647236 0.670609961019504 0.668451638933333 0.666404597141288 0.666404597141288 0.664538240093757 0.663030768029948 0.663030768029948 0.66185725002045 0.688962707344445 0.68674007292021 0.681713338484353 0.677576970007599 0.674914646755504 0.672582360647236 0.668451638933333 0.664538240093757 0.663030768029948 0.66082634729346 0.659645848203124 0.656573003589515 0.654532878176641 0.652352235437599 0.650321425139874 0.648643856581033 0.648643856581033 0.648643856581033 0.648643856581033 0.648643856581033 0.687850254855413 0.681713338484353 0.674914646755504 0.670609961019504 0.664538240093757 0.66185725002045 0.658259988882651 0.654532878176641 0.650321425139874 0.648643856581033 0.648643856581033 0.648643856581033 0.648643856581033 0.648643856581033 0.648643856581033 0.648643856581033 0.648643856581033 0.648643856581033 0.648643856581033 0.648643856581033 0.68674007292021 0.675971570273697 0.670609961019504 0.663030768029948 0.659645848203124 0.652352235437599 0.648643856581033 0.648643856581033 0.648643856581033 0.648643856581033 0.648643856581033 0.648643856581033 0.648643856581033 0.648643856581033 0.648643856581033 0.648643856581033 0.648643856581033 0.648643856581033 0.648643856581033 0.648643856581033 0.685581153093907 0.673983073493423 0.664538240093757 0.659645848203124 0.650321425139874 0.648643856581033 0.648643856581033 0.648643856581033 0.648643856581033 0.648643856581033 0.648643856581033 0.648643856581033 0.648643856581033 0.648643856581033 0.648643856581033 0.648643856581033 0.648643856581033 0.648643856581033 0.648643856581033 0.648643856581033 0.683829540293015 0.670609961019504 0.66185725002045 0.654532878176641 0.648643856581033 0.648643856581033 0.648643856581033 0.648643856581033 0.648643856581033 0.648643856581033 0.648643856581033 0.648643856581033 0.648643856581033 0.648643856581033 0.648643856581033 0.648643856581033 0.648643856581033 0.648643856581033 0.648643856581033 0.493249646911033 0.681713338484353 0.668451638933333 0.66082634729346 0.650321425139874 0.648643856581033 0.648643856581033 0.648643856581033 0.648643856581033 0.648643856581033 0.648643856581033 0.648643856581033 0.648643856581033 0.648643856581033 0.648643856581033 0.648643856581033 0.648643856581033 0.648643856581033 0.493249646911033 0.493249646911033 0.493249646911033 0.681713338484353 0.668451638933333 0.659645848203124 0.650321425139874 0.648643856581033 0.648643856581033 0.648643856581033 0.648643856581033 0.648643856581033 0.648643856581033 0.648643856581033 0.648643856581033 0.648643856581033 0.648643856581033 0.648643856581033 0.648643856581033 0.648643856581033 0.493249646911033 0.493249646911033 0.493249646911033 0.681713338484353 0.668451638933333 0.66082634729346 0.650321425139874 0.648643856581033 0.648643856581033 0.648643856581033 0.648643856581033 0.648643856581033 0.648643856581033 0.648643856581033 0.648643856581033 0.648643856581033 0.648643856581033 0.648643856581033 0.648643856581033 0.648643856581033 0.493249646911033 0.493249646911033 0.493249646911033 0.683829540293015 0.670609961019504 0.66185725002045 0.654532878176641 0.648643856581033 0.648643856581033 0.648643856581033 0.648643856581033 0.648643856581033 0.648643856581033 0.648643856581033 0.648643856581033 0.648643856581033 0.648643856581033 0.648643856581033 0.648643856581033 0.648643856581033 0.648643856581033 0.648643856581033 0.493249646911033 0.685581153093907 0.673983073493423 0.664538240093757 0.659645848203124 0.650321425139874 0.648643856581033 0.648643856581033 0.648643856581033 0.648643856581033 0.648643856581033 0.648643856581033 0.648643856581033 0.648643856581033 0.648643856581033 0.648643856581033 0.648643856581033 0.648643856581033 0.648643856581033 0.648643856581033 0.648643856581033 0.68674007292021 0.675971570273697 0.670609961019504 0.663030768029948 0.659645848203124 0.652352235437599 0.648643856581033 0.648643856581033 0.648643856581033 0.648643856581033 0.648643856581033 0.648643856581033 0.648643856581033 0.648643856581033 0.648643856581033 0.648643856581033 0.648643856581033 0.648643856581033 0.648643856581033 0.648643856581033 0.687850254855413 0.681713338484353 0.674914646755504 0.670609961019504 0.664538240093757 0.66185725002045 0.658259988882651 0.654532878176641 0.650321425139874 0.648643856581033 0.648643856581033 0.648643856581033 0.648643856581033 0.648643856581033 0.648643856581033 0.648643856581033 0.648643856581033 0.648643856581033 0.648643856581033 0.648643856581033 0.688962707344445 0.68674007292021 0.681713338484353 0.677576970007599 0.674914646755504 0.672582360647236 0.668451638933333 0.664538240093757 0.663030768029948 0.66082634729346 0.659645848203124 0.656573003589515 0.654532878176641 0.652352235437599 0.650321425139874 0.648643856581033 0.648643856581033 0.648643856581033 0.648643856581033 0.648643856581033 0.692712756031976 0.688962707344445 0.687338566967892 0.685581153093907 0.683829540293015 0.681713338484353 0.679568812653673 0.677576970007599 0.675971570273697 0.674914646755504 0.673983073493423 0.672582360647236 0.670609961019504 0.668451638933333 0.666404597141288 0.666404597141288 0.664538240093757 0.663030768029948 0.663030768029948 0.66185725002045 0.694492112334761 0.694492112334761 0.692712756031976 0.690675510047994 0.688962707344445 0.688962707344445 0.687850254855413 0.687850254855413 0.687338566967892 0.687338566967892 0.687338566967892 0.68674007292021 0.68674007292021 0.685581153093907 0.685581153093907 0.685581153093907 0.683829540293015 0.683829540293015 0.683829540293015 0.681713338484353 0.698009389890926 0.698009389890926 0.698009389890926 0.698009389890926 0.698009389890926 0.698009389890926 0.698009389890926 0.698009389890926 0.698009389890926 0.698009389890926 0.698009389890926 0.698009389890926 0.698009389890926 0.698009389890926 0.698009389890926 0.698009389890926 0.698009389890926 0.698009389890926 0.698009389890926 0.698009389890926 0.698250275791687 0.467382725061047 0.467382725061047 0.466997747880652 0.465053386143131 0.465053386143131 0.463154130280626 0.463154130280626 0.463154130280626 0.462744608245585 0.462744608245585 0.464620581207126 0.464620581207126 0.464620581207126 0.464620581207126 0.468209174294749 0.468209174294749 0.468209174294749 0.468209174294749 0.471996373274239 0.467382725061047 0.465053386143131 0.462744608245585 0.464620581207126 0.468209174294749 0.471996373274239 0.47440823212605 0.47440823212605 0.473660491120976 0.471190696866823 0.471190696866823 0.468549063994551 0.468549063994551 0.467791995035523 0.467791995035523 0.467791995035523 0.469252954868593 0.469252954868593 0.469252954868593 0.469252954868593 0.465053386143131 0.464620581207126 0.471996373274239 0.473660491120976 0.471190696866823 0.468549063994551 0.467791995035523 0.467791995035523 0.469252954868593 0.472733058267987 0.472733058267987 0.472733058267987 0.476449265986048 0.476449265986048 0.476449265986048 0.476449265986048 0.476449265986048 0.476449265986048 0.476449265986048 0.476449265986048 0.463154130280626 0.471996373274239 0.471190696866823 0.468549063994551 0.467791995035523 0.469252954868593 0.472733058267987 0.476449265986048 0.476449265986048 0.476449265986048 0.476449265986048 0.476449265986048 0.476449265986048 0.476449265986048 0.476449265986048 0.476449265986048 0.476449265986048 0.476449265986048 0.476449265986048 0.476449265986048 0.464620581207126 0.473660491120976 0.468549063994551 0.469252954868593 0.472733058267987 0.476449265986048 0.476449265986048 0.476449265986048 0.476449265986048 0.476449265986048 0.476449265986048 0.476449265986048 0.476449265986048 0.476449265986048 0.476449265986048 0.476449265986048 0.476449265986048 0.476449265986048 0.476449265986048 0.476449265986048 0.468209174294749 0.471190696866823 0.469252954868593 0.472733058267987 0.476449265986048 0.476449265986048 0.476449265986048 0.476449265986048 0.476449265986048 0.476449265986048 0.476449265986048 0.476449265986048 0.476449265986048 0.476449265986048 0.476449265986048 0.476449265986048 0.476449265986048 0.476449265986048 0.476449265986048 0.476449265986048 0.468209174294749 0.468549063994551 0.469252954868593 0.476449265986048 0.476449265986048 0.476449265986048 0.476449265986048 0.476449265986048 0.476449265986048 0.476449265986048 0.476449265986048 0.476449265986048 0.476449265986048 0.476449265986048 0.476449265986048 0.476449265986048 0.476449265986048 0.476449265986048 0.476449265986048 0.476449265986048 0.471996373274239 0.468549063994551 0.472733058267987 0.476449265986048 0.476449265986048 0.476449265986048 0.476449265986048 0.476449265986048 0.476449265986048 0.476449265986048 0.476449265986048 0.476449265986048 0.476449265986048 0.476449265986048 0.476449265986048 0.476449265986048 0.476449265986048 0.476449265986048 0.476449265986048 0.476449265986048 0.471996373274239 0.467791995035523 0.472733058267987 0.476449265986048 0.476449265986048 0.476449265986048 0.476449265986048 0.476449265986048 0.476449265986048 0.476449265986048 0.476449265986048 0.476449265986048 0.476449265986048 0.476449265986048 0.476449265986048 0.476449265986048 0.476449265986048 0.476449265986048 0.476449265986048 0.476449265986048 0.471996373274239 0.468549063994551 0.472733058267987 0.476449265986048 0.476449265986048 0.476449265986048 0.476449265986048 0.476449265986048 0.476449265986048 0.476449265986048 0.476449265986048 0.476449265986048 0.476449265986048 0.476449265986048 0.476449265986048 0.476449265986048 0.476449265986048 0.476449265986048 0.476449265986048 0.476449265986048 0.468209174294749 0.468549063994551 0.469252954868593 0.476449265986048 0.476449265986048 0.476449265986048 0.476449265986048 0.476449265986048 0.476449265986048 0.476449265986048 0.476449265986048 0.476449265986048 0.476449265986048 0.476449265986048 0.476449265986048 0.476449265986048 0.476449265986048 0.476449265986048 0.476449265986048 0.476449265986048 0.468209174294749 0.471190696866823 0.469252954868593 0.472733058267987 0.476449265986048 0.476449265986048 0.476449265986048 0.476449265986048 0.476449265986048 0.476449265986048 0.476449265986048 0.476449265986048 0.476449265986048 0.476449265986048 0.476449265986048 0.476449265986048 0.476449265986048 0.476449265986048 0.476449265986048 0.476449265986048 0.464620581207126 0.473660491120976 0.468549063994551 0.469252954868593 0.472733058267987 0.476449265986048 0.476449265986048 0.476449265986048 0.476449265986048 0.476449265986048 0.476449265986048 0.476449265986048 0.476449265986048 0.476449265986048 0.476449265986048 0.476449265986048 0.476449265986048 0.476449265986048 0.476449265986048 0.476449265986048 0.463154130280626 0.471996373274239 0.471190696866823 0.468549063994551 0.467791995035523 0.469252954868593 0.472733058267987 0.476449265986048 0.476449265986048 0.476449265986048 0.476449265986048 0.476449265986048 0.476449265986048 0.476449265986048 0.476449265986048 0.476449265986048 0.476449265986048 0.476449265986048 0.476449265986048 0.476449265986048 0.465053386143131 0.464620581207126 0.471996373274239 0.473660491120976 0.471190696866823 0.468549063994551 0.467791995035523 0.467791995035523 0.469252954868593 0.472733058267987 0.472733058267987 0.472733058267987 0.476449265986048 0.476449265986048 0.476449265986048 0.476449265986048 0.476449265986048 0.476449265986048 0.476449265986048 0.476449265986048 0.467382725061047 0.465053386143131 0.462744608245585 0.464620581207126 0.468209174294749 0.471996373274239 0.47440823212605 0.47440823212605 0.473660491120976 0.471190696866823 0.471190696866823 0.468549063994551 0.468549063994551 0.467791995035523 0.467791995035523 0.467791995035523 0.469252954868593 0.469252954868593 0.469252954868593 0.469252954868593 0.698250275791687 0.467382725061047 0.467382725061047 0.466997747880652 0.465053386143131 0.465053386143131 0.463154130280626 0.463154130280626 0.463154130280626 0.462744608245585 0.462744608245585 0.464620581207126 0.464620581207126 0.464620581207126 0.464620581207126 0.468209174294749 0.468209174294749 0.468209174294749 0.468209174294749 0.471996373274239 SCALARS TT/TT_inf float
LOOKUP_TABLE default