# vtk DataFile Version 3.0
vtk output
ASCII
DATASET UNSTRUCTURED_GRID
POINTS 14055 float
3.505512e-01	5.962414e-03	0.0	3.510693e-01	6.264130e-03	0.0	3.510552e-01	6.288256e-03	0.0	3.505372e-01	5.986559e-03	0.0	3.515880e-01	6.564958e-03	0.0	3.515741e-01	6.589124e-03	0.0	3.521079e-01	6.863833e-03	0.0	3.520939e-01	6.888005e-03	0.0	3.526268e-01	7.164067e-03	0.0	3.526127e-01	7.188150e-03	0.0	3.531425e-01	7.469473e-03	0.0	3.531282e-01	7.493389e-03	0.0	3.536542e-01	7.781728e-03	0.0	3.536395e-01	7.805465e-03	0.0	3.541623e-01	8.099784e-03	0.0	3.541474e-01	8.123372e-03	0.0	3.546677e-01	8.422391e-03	0.0	3.546526e-01	8.445872e-03	0.0	3.551714e-01	8.747791e-03	0.0	3.551562e-01	8.771222e-03	0.0	3.556748e-01	9.073781e-03	0.0	3.556597e-01	9.097225e-03	0.0	3.561791e-01	9.398428e-03	0.0	3.561640e-01	9.421893e-03	0.0	3.566834e-01	9.722919e-03	0.0	3.566682e-01	9.746342e-03	0.0	3.571857e-01	1.005025e-02	0.0	3.571703e-01	1.007356e-02	0.0	3.576848e-01	1.038220e-02	0.0	3.576693e-01	1.040538e-02	0.0	3.581815e-01	1.071793e-02	0.0	3.581658e-01	1.074101e-02	0.0	3.586765e-01	1.105624e-02	0.0	3.586607e-01	1.107926e-02	0.0	3.591706e-01	1.139579e-02	0.0	3.591548e-01	1.141880e-02	0.0	3.596649e-01	1.173517e-02	0.0	3.596491e-01	1.175818e-02	0.0	3.601597e-01	1.207374e-02	0.0	3.601439e-01	1.209676e-02	0.0	3.606542e-01	1.241256e-02	0.0	3.606384e-01	1.243555e-02	0.0	3.611474e-01	1.275290e-02	0.0	3.611315e-01	1.277582e-02	0.0	3.616389e-01	1.309579e-02	0.0	3.616228e-01	1.311863e-02	0.0	3.621282e-01	1.344152e-02	0.0	3.621120e-01	1.346426e-02	0.0	3.626153e-01	1.379020e-02	0.0	3.625990e-01	1.381284e-02	0.0	3.631003e-01	1.414176e-02	0.0	3.630839e-01	1.416432e-02	0.0	3.635840e-01	1.449509e-02	0.0	3.635676e-01	1.451762e-02	0.0	3.640675e-01	1.484875e-02	0.0	3.640510e-01	1.487129e-02	0.0	3.645516e-01	1.520143e-02	0.0	3.645352e-01	1.522399e-02	0.0	3.650361e-01	1.555326e-02	0.0	3.650197e-01	1.557584e-02	0.0	3.655204e-01	1.590518e-02	0.0	3.655040e-01	1.592774e-02	0.0	3.660038e-01	1.625816e-02	0.0	3.659873e-01	1.628066e-02	0.0	3.664855e-01	1.661312e-02	0.0	3.664689e-01	1.663554e-02	0.0	3.669650e-01	1.697082e-02	0.0	3.669482e-01	1.699314e-02	0.0	3.674421e-01	1.733147e-02	0.0	3.674252e-01	1.735367e-02	0.0	3.679168e-01	1.769518e-02	0.0	3.678997e-01	1.771727e-02	0.0	3.683888e-01	1.806208e-02	0.0	3.683715e-01	1.808405e-02	0.0	3.688580e-01	1.843227e-02	0.0	3.688407e-01	1.845413e-02	0.0	3.693250e-01	1.880517e-02	0.0	3.693076e-01	1.882694e-02	0.0	3.697907e-01	1.917968e-02	0.0	3.697732e-01	1.920141e-02	0.0	3.702558e-01	1.955468e-02	0.0	3.702383e-01	1.957642e-02	0.0	3.707212e-01	1.992907e-02	0.0	3.707038e-01	1.995084e-02	0.0	3.711876e-01	2.030207e-02	0.0	3.711702e-01	2.032388e-02	0.0	3.716543e-01	2.067438e-02	0.0	3.716369e-01	2.069619e-02	0.0	3.721204e-01	2.104707e-02	0.0	3.721029e-01	2.106883e-02	0.0	3.725850e-01	2.142120e-02	0.0	3.725674e-01	2.144289e-02	0.0	3.730473e-01	2.179784e-02	0.0	3.730296e-01	2.181941e-02	0.0	3.735068e-01	2.217754e-02	0.0	3.734890e-01	2.219899e-02	0.0	3.739635e-01	2.256042e-02	0.0	3.739455e-01	2.258174e-02	0.0	3.744171e-01	2.294656e-02	0.0	3.743989e-01	2.296774e-02	0.0	3.748676e-01	2.333605e-02	0.0	3.748493e-01	2.335710e-02	0.0	3.753151e-01	2.372876e-02	0.0	3.752967e-01	2.374968e-02	0.0	3.757605e-01	2.412367e-02	0.0	3.757419e-01	2.414452e-02	0.0	3.762047e-01	2.451961e-02	0.0	3.761861e-01	2.454044e-02	0.0	3.766489e-01	2.491540e-02	0.0	3.766303e-01	2.493625e-02	0.0	3.770939e-01	2.530993e-02	0.0	3.770754e-01	2.533081e-02	0.0	3.775388e-01	2.570409e-02	0.0	3.775202e-01	2.572493e-02	0.0	3.779813e-01	2.610043e-02	0.0	3.779626e-01	2.612114e-02	0.0	3.784206e-01	2.649993e-02	0.0	3.784018e-01	2.652051e-02	0.0	3.788571e-01	2.690235e-02	0.0	3.788381e-01	2.692284e-02	0.0	3.792923e-01	2.730583e-02	0.0	3.792734e-01	2.732631e-02	0.0	3.797282e-01	2.770831e-02	0.0	3.797093e-01	2.772881e-02	0.0	3.801639e-01	2.811056e-02	0.0	3.801449e-01	2.813102e-02	0.0	3.805977e-01	2.851432e-02	0.0	3.805786e-01	2.853468e-02	0.0	3.810284e-01	2.892092e-02	0.0	3.810092e-01	2.894114e-02	0.0	3.814559e-01	2.933047e-02	0.0	3.814366e-01	2.935055e-02	0.0	3.818804e-01	2.974289e-02	0.0	3.818609e-01	2.976285e-02	0.0	3.823023e-01	3.015753e-02	0.0	3.822828e-01	3.017742e-02	0.0	3.827234e-01	3.057285e-02	0.0	3.827038e-01	3.059273e-02	0.0	3.831450e-01	3.098728e-02	0.0	3.831254e-01	3.100720e-02	0.0	3.835672e-01	3.140060e-02	0.0	3.835477e-01	3.142053e-02	0.0	3.839891e-01	3.181381e-02	0.0	3.839695e-01	3.183372e-02	0.0	3.844095e-01	3.222798e-02	0.0	3.843898e-01	3.224781e-02	0.0	3.848274e-01	3.264416e-02	0.0	3.848076e-01	3.266386e-02	0.0	3.852421e-01	3.306304e-02	0.0	3.852222e-01	3.308261e-02	0.0	3.856537e-01	3.348462e-02	0.0	3.856336e-01	3.350404e-02	0.0	3.860621e-01	3.390878e-02	0.0	3.860419e-01	3.392807e-02	0.0	3.864675e-01	3.433544e-02	0.0	3.864472e-01	3.435460e-02	0.0	3.868700e-01	3.476439e-02	0.0	3.868496e-01	3.478344e-02	0.0	3.872705e-01	3.519487e-02	0.0	3.872500e-01	3.521386e-02	0.0	3.876698e-01	3.562598e-02	0.0	3.876494e-01	3.564494e-02	0.0	3.880691e-01	3.605678e-02	0.0	3.880487e-01	3.607578e-02	0.0	3.884692e-01	3.648643e-02	0.0	3.884488e-01	3.650546e-02	0.0	3.888698e-01	3.691507e-02	0.0	3.888494e-01	3.693412e-02	0.0	3.892698e-01	3.734366e-02	0.0	3.892494e-01	3.736267e-02	0.0	3.896683e-01	3.777315e-02	0.0	3.896478e-01	3.779208e-02	0.0	3.900641e-01	3.820452e-02	0.0	3.900435e-01	3.822331e-02	0.0	3.904568e-01	3.863824e-02	0.0	3.904361e-01	3.865690e-02	0.0	3.908465e-01	3.907418e-02	0.0	3.908256e-01	3.909271e-02	0.0	3.912333e-01	3.951217e-02	0.0	3.912123e-01	3.953058e-02	0.0	3.916174e-01	3.995202e-02	0.0	3.915964e-01	3.997032e-02	0.0	3.919992e-01	4.039349e-02	0.0	3.919780e-01	4.041170e-02	0.0	3.923790e-01	4.083612e-02	0.0	3.923578e-01	4.085427e-02	0.0	3.927575e-01	4.127946e-02	0.0	3.927362e-01	4.129756e-02	0.0	3.931364e-01	4.172449e-02	0.0	3.931165e-01	4.174401e-02	0.0	3.935720e-01	4.211092e-02	0.0	3.935576e-01	4.213481e-02	0.0	3.941228e-01	4.231985e-02	0.0	3.941171e-01	4.234717e-02	0.0	3.947082e-01	4.234606e-02	0.0	3.947130e-01	4.237356e-02	0.0	3.952550e-01	4.212464e-02	0.0	3.952701e-01	4.214810e-02	0.0	3.957568e-01	4.167155e-02	0.0	3.957794e-01	4.168798e-02	0.0	3.960284e-01	4.106282e-02	0.0	3.960555e-01	4.106938e-02	0.0	3.960678e-01	4.038462e-02	0.0	3.960952e-01	4.037933e-02	0.0	3.957807e-01	3.977228e-02	0.0	3.958057e-01	3.975998e-02	0.0	3.954736e-01	3.917248e-02	0.0	3.954982e-01	3.915919e-02	0.0	3.951388e-01	3.858770e-02	0.0	3.951629e-01	3.857361e-02	0.0	3.947933e-01	3.800955e-02	0.0	3.948173e-01	3.799529e-02	0.0	3.944502e-01	3.742973e-02	0.0	3.944741e-01	3.741530e-02	0.0	3.940964e-01	3.685563e-02	0.0	3.941200e-01	3.684066e-02	0.0	3.937266e-01	3.629151e-02	0.0	3.937499e-01	3.627608e-02	0.0	3.933502e-01	3.573197e-02	0.0	3.933733e-01	3.571639e-02	0.0	3.929735e-01	3.517252e-02	0.0	3.929966e-01	3.515695e-02	0.0	3.925971e-01	3.461241e-02	0.0	3.926202e-01	3.459670e-02	0.0	3.922138e-01	3.405667e-02	0.0	3.922367e-01	3.404075e-02	0.0	3.918265e-01	3.350368e-02	0.0	3.918494e-01	3.348773e-02	0.0	3.914421e-01	3.294862e-02	0.0	3.914651e-01	3.293275e-02	0.0	3.910582e-01	3.239288e-02	0.0	3.910812e-01	3.237701e-02	0.0	3.906736e-01	3.183738e-02	0.0	3.906966e-01	3.182151e-02	0.0	3.902894e-01	3.128145e-02	0.0	3.903124e-01	3.126562e-02	0.0	3.899067e-01	3.072435e-02	0.0	3.899297e-01	3.070858e-02	0.0	3.895255e-01	3.016599e-02	0.0	3.895485e-01	3.015028e-02	0.0	3.891449e-01	2.960696e-02	0.0	3.891680e-01	2.959126e-02	0.0	3.887643e-01	2.904775e-02	0.0	3.887874e-01	2.903205e-02	0.0	3.883835e-01	2.848847e-02	0.0	3.884066e-01	2.847276e-02	0.0	3.880025e-01	2.792917e-02	0.0	3.880256e-01	2.791346e-02	0.0	3.876215e-01	2.736973e-02	0.0	3.876446e-01	2.735403e-02	0.0	3.872409e-01	2.680987e-02	0.0	3.872640e-01	2.679419e-02	0.0	3.868607e-01	2.624958e-02	0.0	3.868838e-01	2.623391e-02	0.0	3.864802e-01	2.568928e-02	0.0	3.865033e-01	2.567359e-02	0.0	3.860989e-01	2.512941e-02	0.0	3.861220e-01	2.511369e-02	0.0	3.857170e-01	2.456984e-02	0.0	3.857400e-01	2.455411e-02	0.0	3.853350e-01	2.401025e-02	0.0	3.853580e-01	2.399452e-02	0.0	3.849530e-01	2.345048e-02	0.0	3.849761e-01	2.343476e-02	0.0	3.845712e-01	2.289056e-02	0.0	3.845942e-01	2.287484e-02	0.0	3.841893e-01	2.233052e-02	0.0	3.842124e-01	2.231480e-02	0.0	3.838074e-01	2.177041e-02	0.0	3.838305e-01	2.175468e-02	0.0	3.834251e-01	2.121048e-02	0.0	3.834481e-01	2.119472e-02	0.0	3.830415e-01	2.065126e-02	0.0	3.830645e-01	2.063543e-02	0.0	3.826560e-01	2.009329e-02	0.0	3.826789e-01	2.007737e-02	0.0	3.822677e-01	1.953714e-02	0.0	3.822905e-01	1.952111e-02	0.0	3.818767e-01	1.898285e-02	0.0	3.818995e-01	1.896674e-02	0.0	3.814841e-01	1.842972e-02	0.0	3.815069e-01	1.841356e-02	0.0	3.810910e-01	1.787695e-02	0.0	3.811138e-01	1.786079e-02	0.0	3.806985e-01	1.732376e-02	0.0	3.807213e-01	1.730763e-02	0.0	3.803068e-01	1.676993e-02	0.0	3.803296e-01	1.675381e-02	0.0	3.799150e-01	1.621615e-02	0.0	3.799377e-01	1.620000e-02	0.0	3.795218e-01	1.566324e-02	0.0	3.795445e-01	1.564702e-02	0.0	3.791262e-01	1.511193e-02	0.0	3.791489e-01	1.509560e-02	0.0	3.787276e-01	1.456281e-02	0.0	3.787502e-01	1.454633e-02	0.0	3.783252e-01	1.401644e-02	0.0	3.783476e-01	1.399982e-02	0.0	3.779193e-01	1.347276e-02	0.0	3.779416e-01	1.345603e-02	0.0	3.775117e-01	1.293043e-02	0.0	3.775340e-01	1.291368e-02	0.0	3.771045e-01	1.238794e-02	0.0	3.771269e-01	1.237121e-02	0.0	3.766986e-01	1.184450e-02	0.0	3.767210e-01	1.182781e-02	0.0	3.762931e-01	1.130076e-02	0.0	3.763155e-01	1.128406e-02	0.0	3.758869e-01	1.075754e-02	0.0	3.759092e-01	1.074079e-02	0.0	3.754789e-01	1.021567e-02	0.0	3.755011e-01	1.019882e-02	0.0	3.750680e-01	9.675987e-03	0.0	3.750901e-01	9.659005e-03	0.0	3.746533e-01	9.139200e-03	0.0	3.746753e-01	9.122046e-03	0.0	3.742341e-01	8.605981e-03	0.0	3.742559e-01	8.588624e-03	0.0	3.738095e-01	8.077026e-03	0.0	3.738312e-01	8.059434e-03	0.0	3.733790e-01	7.553051e-03	0.0	3.734005e-01	7.535220e-03	0.0	3.729429e-01	7.033811e-03	0.0	3.729642e-01	7.015794e-03	0.0	3.725035e-01	6.517665e-03	0.0	3.725247e-01	6.499548e-03	0.0	3.720629e-01	6.002806e-03	0.0	3.720841e-01	5.984678e-03	0.0	3.716232e-01	5.487395e-03	0.0	3.716444e-01	5.469327e-03	0.0	3.711856e-0
[...]
POINT_DATA 14055

SCALARS Adjoint_Density float 1
LOOKUP_TABLE default
-2.733038e-02	-2.733247e-02	-2.759535e-02	-2.758417e-02	-2.732939e-02	-2.759240e-02	-2.732798e-02	-2.758780e-02	-2.732361e-02	-2.757133e-02	-2.733236e-02	-2.757747e-02	-2.734228e-02	-2.759098e-02	-2.735038e-02	-2.760543e-02	-2.735818e-02	-2.762033e-02	-2.736542e-02	-2.763651e-02	-2.735282e-02	-2.765791e-02	-2.735019e-02	-2.765226e-02	-2.736136e-02	-2.762675e-02	-2.735844e-02	-2.765256e-02	-2.736750e-02	-2.766450e-02	-2.737267e-02	-2.767613e-02	-2.737528e-02	-2.768516e-02	-2.737634e-02	-2.769090e-02	-2.737742e-02	-2.769233e-02	-2.738182e-02	-2.769595e-02	-2.738118e-02	-2.769024e-02	-2.738035e-02	-2.768459e-02	-2.738623e-02	-2.769027e-02	-2.739093e-02	-2.769649e-02	-2.739477e-02	-2.770367e-02	-2.739715e-02	-2.771148e-02	-2.739724e-02	-2.771728e-02	-2.739621e-02	-2.771884e-02	-2.739741e-02	-2.772181e-02	-2.739519e-02	-2.771559e-02	-2.739503e-02	-2.770950e-02	-2.739508e-02	-2.770391e-02	-2.739358e-02	-2.769806e-02	-2.739330e-02	-2.769701e-02	-2.739377e-02	-2.769876e-02	-2.739280e-02	-2.769986e-02	-2.739099e-02	-2.770148e-02	-2.738818e-02	-2.770410e-02	-2.738335e-02	-2.770592e-02	-2.737709e-02	-2.770564e-02	-2.737119e-02	-2.770324e-02	-2.736718e-02	-2.770264e-02	-2.736041e-02	-2.769385e-02	-2.735799e-02	-2.768476e-02	-2.735828e-02	-2.767701e-02	-2.735934e-02	-2.767081e-02	-2.735872e-02	-2.766571e-02	-2.735984e-02	-2.766684e-02	-2.735998e-02	-2.766860e-02	-2.735881e-02	-2.767011e-02	-2.735693e-02	-2.767276e-02	-2.735348e-02	-2.767576e-02	-2.734793e-02	-2.767675e-02	-2.734214e-02	-2.767536e-02	-2.733689e-02	-2.767288e-02	-2.732936e-02	-2.766277e-02	-2.732896e-02	-2.765205e-02	-2.733322e-02	-2.764893e-02	-2.734147e-02	-2.765989e-02	-2.734607e-02	-2.767048e-02	-2.734505e-02	-2.767217e-02	-2.734579e-02	-2.767271e-02	-2.735059e-02	-2.766825e-02	-2.736048e-02	-2.766879e-02	-2.737216e-02	-2.767862e-02	-2.738425e-02	-2.769221e-02	-2.739604e-02	-2.770783e-02	-2.740512e-02	-2.772107e-02	-2.741240e-02	-2.772971e-02	-2.742217e-02	-2.773884e-02	-2.743737e-02	-2.774678e-02	-2.746040e-02	-2.775791e-02	-2.748885e-02	-2.777337e-02	-2.752157e-02	-2.779681e-02	-2.755688e-02	-2.782676e-02	-2.759334e-02	-2.785828e-02	-2.763248e-02	-2.789196e-02	-2.767576e-02	-2.792935e-02	-2.772308e-02	-2.797011e-02	-2.777418e-02	-2.801265e-02	-2.783061e-02	-2.805731e-02	-2.789316e-02	-2.810375e-02	-2.796425e-02	-2.815593e-02	-2.805200e-02	-2.821704e-02	-2.815593e-02	-2.828628e-02	-2.827804e-02	-2.837016e-02	-2.841872e-02	-2.846542e-02	-2.858280e-02	-2.856892e-02	-2.877672e-02	-2.867706e-02	-2.901119e-02	-2.878536e-02	-2.929841e-02	-2.888031e-02	-2.964942e-02	-2.892946e-02	-3.005922e-02	-2.887229e-02	-3.056979e-02	-2.874924e-02	-3.068823e-02	-2.850984e-02	-2.889892e-02	-2.960739e-02	-2.924858e-02	-3.159097e-02	-3.118184e-02	-3.264291e-02	-3.589651e-02	-3.756294e-02	-3.819126e-02	-4.127101e-02	-3.730615e-02	-4.041091e-02	-3.215601e-02	-3.561928e-02	-2.861752e-02	-3.163227e-02	-2.732967e-02	-2.981809e-02	-2.682523e-02	-2.847701e-02	-2.657143e-02	-2.801398e-02	-2.655473e-02	-2.789467e-02	-2.652800e-02	-2.795627e-02	-2.654215e-02	-2.791680e-02	-2.662997e-02	-2.792392e-02	-2.676827e-02	-2.798816e-02	-2.690509e-02	-2.805545e-02	-2.702179e-02	-2.810158e-02	-2.714495e-02	-2.816243e-02	-2.727883e-02	-2.824796e-02	-2.740330e-02	-2.833098e-02	-2.751406e-02	-2.840285e-02	-2.761783e-02	-2.847159e-02	-2.771903e-02	-2.854064e-02	-2.782186e-02	-2.860636e-02	-2.795499e-02	-2.872284e-02	-2.803382e-02	-2.877982e-02	-2.809701e-02	-2.882233e-02	-2.815304e-02	-2.886035e-02	-2.820521e-02	-2.889693e-02	-2.825474e-02	-2.893344e-02	-2.830246e-02	-2.897048e-02	-2.834532e-02	-2.900376e-02	-2.838258e-02	-2.903131e-02	-2.841686e-02	-2.905594e-02	-2.845095e-02	-2.908136e-02	-2.848595e-02	-2.910914e-02	-2.852360e-02	-2.914103e-02	-2.855697e-02	-2.916894e-02	-2.858477e-02	-2.919289e-02	-2.862259e-02	-2.922058e-02	-2.865143e-02	-2.924412e-02	-2.867256e-02	-2.925911e-02	-2.867524e-02	-2.926339e-02	-2.867424e-02	-2.925681e-02	-2.867752e-02	-2.925363e-02	-2.868606e-02	-2.925585e-02	-2.870477e-02	-2.927373e-02	-2.873694e-02	-2.929256e-02	-2.875916e-02	-2.931367e-02	-2.877134e-02	-2.932505e-02	-2.877805e-02	-2.932918e-02	-2.878183e-02	-2.932723e-02	-2.876717e-02	-2.931361e-02	-2.875622e-02	-2.929730e-02	-2.875312e-02	-2.928640e-02	-2.875894e-02	-2.928578e-02	-2.877069e-02	-2.929487e-02	-2.878964e-02	-2.930860e-02	-2.879429e-02	-2.931559e-02	-2.878409e-02	-2.931321e-02	-2.874434e-02	-2.924805e-02	-2.872462e-02	-2.921762e-02	-2.871160e-02	-2.919501e-02	-2.870446e-02	-2.917539e-02	-2.868706e-02	-2.915488e-02	-2.868028e-02	-2.914095e-02	-2.868742e-02	-2.914003e-02	-2.870342e-02	-2.914700e-02	-2.872836e-02	-2.916345e-02	-2.876674e-02	-2.919127e-02	-2.878750e-02	-2.921000e-02	-2.879635e-02	-2.921026e-02	-2.880261e-02	-2.920117e-02	-2.879089e-02	-2.918839e-02	-2.879452e-02	-2.918305e-02	-2.882994e-02	-2.919848e-02	-2.885688e-02	-2.922638e-02	-2.886486e-02	-2.924974e-02	-2.888451e-02	-2.925840e-02	-2.889156e-02	-2.924635e-02	-2.891109e-02	-2.924704e-02	-2.894324e-02	-2.926286e-02	-2.898415e-02	-2.929864e-02	-2.901205e-02	-2.932240e-02	-2.901920e-02	-2.932525e-02	-2.903997e-02	-2.933372e-02	-2.907839e-02	-2.936112e-02	-2.910508e-02	-2.938626e-02	-2.911393e-02	-2.939506e-02	-2.913037e-02	-2.940062e-02	-2.916199e-02	-2.941565e-02	-2.918117e-02	-2.944061e-02	-2.919064e-02	-2.944624e-02	-2.918729e-02	-2.943722e-02	-2.920234e-02	-2.945091e-02	-2.922396e-02	-2.946281e-02	-2.925731e-02	-2.947926e-02	-2.927608e-02	-2.950727e-02	-2.928427e-02	-2.951349e-02	-3.094116e-02	-3.116467e-02	-3.262600e-02	-3.284655e-02	-3.265893e-02	-3.287188e-02	-3.268919e-02	-3.289222e-02	-3.271436e-02	-3.291994e-02	-3.273046e-02	-3.290642e-02	-3.272292e-02	-3.290229e-02	-3.272300e-02	-3.287963e-02	-3.273106e-02	-3.290008e-02	-3.276378e-02	-3.294053e-02	-3.279210e-02	-3.296512e-02	-3.281558e-02	-3.297812e-02	-3.282529e-02	-3.299411e-02	-3.283027e-02	-3.296525e-02	-3.281913e-02	-3.292246e-02	-3.279459e-02	-3.290130e-02	-3.281063e-02	-3.292484e-02	-3.284117e-02	-3.296350e-02	-3.286081e-02	-3.297552e-02	-3.287635e-02	-3.297989e-02	-3.287799e-02	-3.296146e-02	-3.284929e-02	-3.291006e-02	-3.281715e-02	-3.286648e-02	-3.280362e-02	-3.284259e-02	-3.282316e-02	-3.286809e-02	-3.283966e-02	-3.288534e-02	-3.283667e-02	-3.287542e-02	-3.283723e-02	-3.285001e-02	-3.279785e-02	-3.278294e-02	-3.275988e-02	-3.269671e-02	-3.272552e-02	-3.265903e-02	-3.274360e-02	-3.268100e-02	-3.276271e-02	-3.269498e-02	-3.275091e-02	-3.268368e-02	-3.274461e-02	-3.263950e-02	-3.267481e-02	-3.249991e-02	-3.262724e-02	-3.242530e-02	-3.262709e-02	-3.243459e-02	-3.267594e-02	-3.251959e-02	-3.266720e-02	-3.250874e-02	-3.265273e-02	-3.244426e-02	-3.255673e-02	-3.224722e-02	-3.250004e-02	-3.215397e-02	-3.250916e-02	-3.217241e-02	-3.258546e-02	-3.231174e-02	-3.258224e-02	-3.231454e-02	-3.254287e-02	-3.223768e-02	-3.239500e-02	-3.192620e-02	-3.230810e-02	-3.177702e-02	-3.234307e-02	-3.180667e-02	-3.250366e-02	-3.210602e-02	-3.250614e-02	-3.213208e-02	-3.249599e-02	-3.208842e-02	-3.235718e-02	-3.192007e-02	-3.225622e-02	-3.175273e-02	-3.220187e-02	-3.172240e-02	-3.228491e-02	-3.183152e-02	-3.233950e-02	-3.189837e-02	-3.235228e-02	-3.191132e-02	-3.235264e-02	-3.190329e-02	-3.240295e-02	-3.188199e-02	-3.227691e-02	-3.179555e-02	-3.203198e-02	-3.162183e-02	-3.192079e-02	-3.160428e-02	-3.215127e-02	-3.187897e-02	-3.239768e-02	-3.211889e-02	-3.242602e-02	-3.222874e-02	-3.210387e-02	-3.209245e-02	-3.195542e-02	-3.212140e-02	-3.222705e-02	-3.233975e-02	-3.230901e-02	-3.240986e-02	-3.222506e-02	-3.226853e-02	-3.217584e-02	-3.213963e-02	-3.202080e-02	-3.188455e-02	-3.133118e-02	-3.097604e-02	-3.068768e-02	-3.038000e-02	-3.080192e-02	-3.045569e-02	-3.088861e-02	-3.136211e-02	-3.145776e-02	-3.204949e-02	-3.470773e-02	-3.527247e-02	-3.770564e-02	-3.812029e-02	-3.883556e-02	-3.929493e-02	-3.931995e-02	-3.983711e-02	-3.866375e-02	-3.918953e-02	-3.900728e-02	-3.925488e-02	-3.902823e-02	-3.913212e-02	-3.904481e-02	-3.911365e-02	-3.896999e-02	-3.914342e-02	-3.899849e-02	-3.917060e-02	-3.900989e-02	-3.919140e-02	-3.906543e-02	-3.923612e-02	-3.907640e-02	-3.925220e-02	-3.911722e-02	-3.929440e-02	-3.915943e-02	-3.933961e-02	-3.920553e-02	-3.938843e-02	-3.926796e-02	-3.944214e-02	-3.930203e-02	-3.946905e-02	-3.933118e-02	-3.949105e-02	-3.933707e-02	-3.950041e-02	-3.935853e-02	-3.951805e-02	-3.939509e-02	-3.956273e-02	-3.944446e-02	-3.962997e-02	-3.948853e-02	-3.969069e-02	-3.953395e-02	-3.973725e-02	-3.954097e-02	-3.973016e-02	-3.953593e-02	-3.971165e-02	-3.957789e-02	-3.976340e-02	-3.962114e-02	-3.982726e-02	-3.963219e-02	-3.984312e-02	-3.962714e-02	-3.981534e-02	-3.965498e-02	-3.984267e-02	-3.970280e-02	-3.991473e-02	-3.970729e-02	-3.992912e-02	-3.969561e-02	-3.990032e-02	-3.971916e-02	-3.991951e-02	-3.975878e-02	-3.998187e-02	-3.975827e-02	-3.999470e-02	-3.974154e-02	-3.996463e-02	-3.975499e-02	-3.997186e-02	-3.978179e-02	-4.001737e-02	-3.977354e-02	-4.002137e-02	-3.975463e-02	-3.999124e-02	-3.976259e-02	-3.999331e-02	-3.977971e-02	-4.002740e-02	-3.976768e-02	-4.002966e-02	-3.974398e-02	-3.999716e-02	-3.973923e-02	-3.997844e-02	-3.974999e-02	-3.999246e-02	-2.786983e-02	-2.784968e-02	-2.786559e-02	-2.785542e-02	-2.782922e-02	-2.783313e-02	-2.785038e-02	-2.787088e-02	-2.789190e-02	-2.791111e-02	-2.792028e-02	-2.791376e-02	-2.789314e-02	-2.790155e-02	-2.791562e-02	-2.793130e-02	-2.794404e-02	-2.795179e-02	-2.795146e-02	-2.795303e-02	-2.794379e-02	-2.793520e-02	-2.794024e-02	-2.794704e-02	-2.795611e-02	-2.796725e-02	-2.797615e-02	-2.797781e-02	-2.798201e-02	-2.797408e-02	-2.796388e-02	-2.795379e-02	-2.794522e-02	-2.794252e-02	-2.794479e-02	-2.794681e-02	-2.795024e-02	-2.795606e-02	-2.796166e-02	-2.796431e-02	-2.796272e-02	-2.796489e-02	-2.795714e-02	-2.794426e-02	-2.793057e-02	-2.791825e-02	-2.790866e-02	-2.790955e-02	-2.791208e-02	-2.791485e-02	-2.791998e-02	-2.792657e-02	-2.793078e-02	-2.793084e-02	-2.792981e-02	-2.792037e-02	-2.790135e-02	-2.789061e-02	-2.790380e-02	-2.791839e-02	-2.792036e-02	-2.792303e-02	-2.791179e-02	-2.790329e-02	-2.791128e-02	-2.792545e-02	-2.794039e-02	-2.795790e-02	-2.796557e-02	-2.797663e-02	-2.798136e-02	-2.798393e-02	-2.798830e-02	-2.800088e-02	-2.802682e-02	-2.805385e-02	-2.808193e-02	-2.811292e-02	-2.814635e-02	-2.817961e-02	-2.821239e-02	-2.824383e-02	-2.828498e-02	-2.832461e-02	-2.836358e-02	-2.840994e-02	-2.846903e-02	-2.852601e-02	-2.857222e-02	-2.859878e-02	-2.859051e-02	-2.852355e-02	-2.837987e-02	-2.829697e-02	-2.860235e-02	-3.041245e-02	-3.216092e-02	-3.281974e-02	-3.670894e-02	-4.082687e-02	-4.066392e-02	-3.644277e-02	-3.314256e-02	-3.123771e-02	-2.999005e-02	-2.939655e-02	-2.914559e-02	-2.912050e-02	-2.897917e-02	-2.888850e-02	-2.887959e-02	-2.889238e-02	-2.888165e-02	-2.888402e-02	-2.892534e-02	-2.897487e-02	-2.901541e-02	-2.905599e-02	-2.910171e-02	-2.914701e-02	-2.917319e-02	-2.921104e-02	-2.924470e-02	-2.927518e-02	-2.930444e-02	-2.933468e-02	-2.936711e-02	-2.939610e-02	-2.941894e-02	-2.943847e-02	-2.945942e-02	-2.948366e-02	-2.950868e-02	-2.953417e-02	-2.955793e-02	-2.957619e-02	-2.959605e-02	-2.960723e-02	-2.961471e-02	-2.960934e-02	-2.960351e-02	-2.961372e-02	-2.961032e-02	-2.962736e-02	-2.964870e-02	-2.966105e-02	-2.966468e-02	-2.965931e-02	-2.965093e-02	-2.963357e-02	-2.961780e-02	-2.961286e-02	-2.962158e-02	-2.963181e-02	-2.964168e-02	-2.964308e-02	-2.963689e-02	-2.962096e-02	-2.960128e-02	-2.957673e-02	-2.955567e-02	-2.953949e-02	-2.952856e-02	-2.952318e-02	-2.952704e-02	-2.955537e-02	-2.958223e-02	-2.958353e-02	-2.956476e-02	-2.955452e-02	-2.954054e-02	-2.953889e-02	-2.957823e-02	-2.960189e-02	-2.960081e-02	-2.955287e-02	-2.954166e-02	-2.954083e-02	-2.957951e-02	-2.959923e-02	-2.960013e-02	-2.960349e-02	-2.962348e-02	-2.964180e-02	-2.965971e-02	-2.965282e-02	-2.965467e-02	-2.969318e-02	-2.969414e-02	-2.968073e-02	-2.969803e-02	-2.969698e-02	-2.969640e-02	-2.974242e-02	-2.974648e-02	-3.139339e-02	-3.307468e-02	-3.308546e-02	-3.309505e-02	-3.314145e-02	-3.313923e-02	-3.311355e-02	-3.305245e-02	-3.309651e-02	-3.314917e-02	-3.315524e-02	-3.315720e-02	-3.319776e-02	-3.317378e-02	-3.310527e-02	-3.306655e-02	-3.309482e-02	-3.314154e-02	-3.313112e-02	-3.312893e-02	-3.314271e-02	-3.306830e-02	-3.300151e-02	-3.297059e-02	-3.298783e-02	-3.300917e-02	-3.298056e-02	-3.299224e-02	-3.289977e-02	-3.279602e-02	-3.273206e-02	-3.274207e-02	-3.272999e-02	-3.273497e-02	-3.271102e-02	-3.269142e-02	-3.259471e-02	-3.260463e-02	-3.254411e-02	-3.252960e-02	-3.246273e-02	-3.242102e-02	-3.231098e-02	-3.232918e-02	-3.227215e-02	-3.229352e-02	-3.229344e-02	-3.214253e-02	-3.198346e-02	-3.201100e-02	-3.210297e-02	-3.206369e-02	-3.207161e-02	-3.198854e-02	-3.183775e-02	-3.180035e-02	-3.190616e-02	-3.196176e-02	-3.201242e-02	-3.201485e-02	-3.205559e-02	-3.211420e-02	-3.207915e-02	-3.206421e-02	-3.233422e-02	-3.250380e-02	-3.270942e-02	-3.249887e-02	-3.232167e-02	-3.224419e-02	-3.219194e-02	-3.148107e-02	-3.120425e-02	-3.132303e-02	-3.161263e-02	-3.201487e-02	-3.245787e-02	-3.305962e-02	-3.335364e-02	-3.617987e-02	-3.872085e-02	-3.982214e-02	-4.035316e-02	-3.969513e-02	-3.962839e-02	-3.935185e-02	-3.929615e-02	-3.933122e-02	-3.936049e-02	-3.940193e-02	-3.943442e-02	-3.946414e-02	-3.950786e-02	-3.955619e-02	-3.960829e-02	-3.964705e-02	-3.966476e-02	-3.967585e-02	-3.968827e-02	-3.969872e-02	-3.974844e-02	-3.983258e-02	-3.991013e-02	-3.995191e-02	-3.992805e-02	-3.989875e-02	-3.995644e-02	-4.004034e-02	-4.005854e-02	-4.000805e-02	-4.003164e-02	-4.012885e-02	-4.015223e-02	-4.010459e-02	-4.012014e-02	-4.020724e-02	-4.023329e-02	-4.018919e-02	-4.019221e-02	-4.025896e-02	-4.027509e-02	-4.023347e-02	-4.023219e-02	-4.028570e-02	-4.030180e-02	-4.025931e-02	-4.022796e-02	-4.024754e-02	-2.815273e-02	-2.812343e-02	-2.814721e-02	-2.812718e-02	-2.809552e-02	-2.809759e-02	-2.811880e-02	-2.814509e-02	-2.817174e-02	-2.819477e-02	-2.820212e-02	-2.818846e-02	-2.816729e-02	-2.816898e-02	-2.818552e-02	-2.820551e-02	-2.822209e-02	-2.823195e-02	-2.823004e-02	-2.822679e-02	-2.821467e-02	-2.820528e-02	-2.820991e-02	-2.821747e-02	-2.822864e-02	-2.824329e-02	-2.825542e-02	-2.825740e-02	-2.826025e-02	-2.825085e-02	-2.823739e-02	-2.822366e-02	-2.821284e-02	-2.820917e-02	-2.821205e-02	-2.821499e-02	-2.822023e-02	-2.822925e-02	-2.823857e-02	-2.824407e-02	-2.824336e-02	-2.824550e-02	-2.823821e-02	-2.822220e-02	-2.820378e-02	-2.818664e-02	-2.817357e-02	-2.817333e-02	-2.817664e-02	-2.818063e-02	-2.818820e-02	-2.819835e-02	-2.820570e-02	-2.820726e-02	-2.820498e-02	-2.819501e-02	-2.816898e-02	-2.815202e-02	-2.816768e-02	-2.818658e-02	-2.818888e-02	-2.819106e-02	-2.817363e-02	-2.815719e-02	-2.816348e-02	-2.817763e-02	-2.819534e-02	-2.821458e-02	-2.822115e-02	-2.823119e-02	-2.823226e-02	-2.822737e-02	-2.822250e-02	-2.822356e-02	-2.824568e-02	-2.826848e-02	-2.829135e-02	-2.831658e-02	-2.834364e-02	-2.836883e-02	-2.839103e-02	-2.840819e-02	-2.843535e-02	-2.845506e-02	-2.846767e-02	-2.848156e-02	-2.851093e-02	-2.853350e-02	-2.853927e-02	-2.852120e-02	-2.847217e-02	-2.838842e-02	-2.829674e-02	-2.842697e-02	-2.918490e-02	-3.134094e-02	-3.287444e-02	-3.292695e-02	-3.555493e-02	-3.951272e-02	-3.996936e-02	-3.672886e-02	-3.380354e-02	-3.184834e-02	-3.086734e-02	-3.027463e-02	-2.998804e-02	-2.973756e-02	-2.952955e-02	-2.939088e-02	-2.935390e-02	-2.935635e-02	-2.932924e-02	-2.930389e-02	-2.932576e-02	-2.936391e-02	-2.939176e-02	-2.941953e-02	-2.945571e-02	-2.949647e-02	-2.953478e-02	-2.956933e-02	-2.959888e-02	-2.962467e-02	-2.964883e-02	-2.967470e-02	-2.970456e-02	-2.973091e-02	-2.975062e-02	-2.976646e-02	-2.978430e-02	-2.980451e-02	-2.982425e-02	-2.984869e-02	-2.987386e-02	-2.989290e-02	-2.991152e-02	-2.992124e-02	-2.992327e-02	-2.991989e-02	-2.991271e-02	-2.991276e-02	-2.991421e-02	-2.993411e-02	-2.995631e-02	-2.997061e-02	-2.997541e-02	-2.996927e-02	-2.995705e-02	-2.994012e-02	-2.992018e-02	-2.990994e-02	-2.992331e-02	-2.993900e-02	-2.995278e-02	-2.995890e-02	-2.995375e-02	-2.994210e-02	-2.992537e-02	-2.990060e-02	-2.987160e-02	-2.985845e-02	-2.984300e-02	-2.982870e-02	-2.982311e-02	-2.986504e-02	-2.990074e-02	-2.990644e-02	-2.988522e-02	-2.986886e-02	-2.984916e-02	-2.984918e-02	-2.989684e-02	-2.992643e-02	-2.992241e-02	-2.989090e-02	-2.988400e-02	-2.987646e-02	-2.991799e-02	-2.993978e-02	-2.993486e-02	-2.990710e-02	-2.992742e-02	-2.996903e-02	-2.996355e-02	-2.993891e-02	-2.993592e-02	-2.998295e-02	-2.996964e-02	-2.995820e-02	-2.999150e-02	-2.997381e-02	-2.996421e-02	-3.002185e-02	-3.001398e-02	-3.166403e-02	-3.335753e-02	-3.334819e-02	-3.334757e-02	-3.341566e-02	-3.342539e-02	-3.337443e-02	-3.335915e-02	-3.341566e-02	-3.343035e-02	-3.340501e-02	-3.339620e-02	-3.346391e-02	-3.344308e-02	-3.342145e-02	-3.338151e-02	-3.341093e-02	-3.340834e-02	-3.336112e-02	-3.336180e-02	-3.341314e-02	-3.338076e-02	-3.331286e-02	-3.328615e-02	-3.328876e-02	-3.324331e-02	-3.318740e-02	-3.324990e-02	-3.321575e-02	-3.312022e-02	-3.305176e-02	-3.305571e-02	-3.301257e-02	-3.295634e-02	-3.302683e-02	-3.304765e-02	-3.294243e-02	-3.295287e-02	-3.287701e-02	-3.276288e-02	-3.279723e-02	-3.281635e-02	-3.270344e-02	-3.273473e-02	-3.265646e-02	-3.253850e-02	-3.261414e-02	-3.273713e-02	-3.251615e-02	-3.264216e-02	-3.242815e-02	-3.227843e-02	-3.235901e-02	-3.234351e-02	-3.221721e-02	-3.216964e-02	-3.226346e-02	-3.230728e-02	-3.242207e-02	-3.242976e-02	-3.254363e-02	-3.269370e-02	-3.268642e-02	-3.259282e-02	-3.279048e-02	-3.279176e-02	-3.279929e-02	-3.191691e-02	-3.134401e-02	-3.112750e-02	-3.132181e-02	-3.157508e-02	-3.193290e-02	-3.258647e-02	-3.359144e-02	-3.412901e-02	-3.471433e-02	-3.473556e-02	-3.459903e-02	-3.702888e-02	-3.938321e-02	-4.042364e-02	-4.092921e-02	-4.025016e-02	-4.002176e-02	-3.961524e-02	-3.953082e-02	-3.953862e-02	-3.955880e-02	-3.960043e-02	-3.964866e-02	-3.967773e-02	-3.972792e-02	-3.978288e-02	-3.984222e-02	-3.988544e-02	-3.989634e-02	-3.989646e-02	-3.989654e-02	-3.989980e-02	-3.995328e-02	-4.005450e-02	-4.015028e-02	-4.019685e-02	-4.015402e-02	-4.010156e-02	-4.016516e-02	-4.027001e-02	-4.028616e-02	-4.021244e-02	-4.023222e-02	-4.035576e-02	-4.038717e-02	-4.031791e-02	-4.032915e-02	-4.044214e-02	-4.048068e-02	-4.042030e-02	-4.041882e-02	-4.050788e-02	-4.053541e-02	-4.048020e-02	-4.047614e-02	-4.055010e-02	-4.057963e-02	-4.052585e-02	-4.048184e-02	-4.050777e-02	-2.845592e-02	-2.841656e-02	-2.844948e-02	-2.841793e-02	-2.838061e-02	-2.838077e-02	-2.840619e-02	-2.843859e-02	-2.847142e-02	-2.849972e-02	-2.850804e-02	-2.848816e-02	-2.846155e-02	-2.845873e-02	-2.847814e-02	-2.850291e-02	-2.852377e-02	-2.853621e-02	-2.853331e-02	-2.852475e-02	-2.850919e-02	-2.849884e-02	-2.850318e-02	-2.851168e-02	-2.852518e-02	-2.854376e-02	-2.855971e-02	-2.856280e-02	-2.856417e-02	-2.855351e-02	-2.853685e-02	-2.851919e-02	-2.850455e-02	-2.850076e-02	-2.850432e-02	-2.850819e-02	-2.851522e-02	-2.852755e-02	-2.854079e-02	-2.854945e-02	-2.855020e-02	-2.855168e-02	-2.854509e-02	-2.852607e-02	-2.850289e-02	-2.848046e-02	-2.846329e-02	-2.846175e-02	-2.846588e-02	-2.847104e-02	-2.848106e-02	-2.849494e-02	-2.850574e-02	-2.850927e-02	-2.850437e-02	-2.849374e-02	-2.845996e-02	-2.843680e-02	-2.845517e-02	-2.847900e-02	-2.848211e-02	-2.848249e-02	-2.845829e-02	-2.843346e-02	-2.843843e-02	-2.845511e-02	-2.847474e-02	-2.849485e-02	-2.850065e-02	-2.850693e-02	-2.850405e-02	-2.849134e-02	-2.847684e-02	-2.846799e-02	-2.848647e-02	-2.850547e-02	-2.852382e-02	-2.854442e-02	-2.856677e-02	-2.858596e-02	-2.859978e-02	-2.860439e-02	-2.861201e-02	-2.861388e-02	-2.860346e-02	-2.859697e-02	-2.860493e-02	-2.860659e-02	-2.859266e-02	-2.856032e-02	-2.851236e-02	-2.846303e-02	-2.847109e-02	-2.892708e-02	-2.994908e-02	-3.216379e-02	-3.361852e-02	-3.336230e-02	-3.514626e-02	-3.844392e-02	-3.934268e-02	-3.677739e-02	-3.426418e-02	-3.238579e-02	-3.145624e-02	-3.083819e-02	-3.055657e-02	-3.032866e-02	-3.009217e-02	-2.991053e-02	-2.984497e-02	-2.983665e-02	-2.979282e-02	-2.973893e-02	-2.974077e-02	-2.976716e-02	-2.978166e-02	-2.979578e-02	-2.982151e-02	-2.985600e-02	-2.989069e-02	-2.992104e-02	-2.994661e-02	-2.996820e-02	-2.998784e-02	-3.001002e-02	-3.003708e-02	-3.006255e-02	-3.007993e-02	-3.009267e-02	-3.010681e-02	-3.0124