# vtk DataFile Version 3.0
vtk output
ASCII

DATASET UNSTRUCTURED_GRID
POINTS 720 float
0 0.00900287216327654 0.0  0 0.0149595977928712 0.0  0 0.0191449059820271 0.0  0 0.0225669068327238 0.0  0 0.0255343522129114 0.0  0 0.0281911511270681 0.0  0 0.030618276581241 0.0  0 0.0328666505707769 0.0  0 0.034970767487685 0.0  0 0.0369552761809989 0.0  0 0.038838515632682 0.0  0 0.0406345684791442 0.0  0 0.0423545276732304 0.0  0 0.0440073161344636 0.0  0 0.0456002382920835 0.0  0 0.0471393635004862 0.0  0 0.0486298000218709 0.0  0 0.0500758954897796 0.0  0 0.0514813866172961 0.0  0 0.0528495130249626 0.0  -0.00156333234492131 0.00886609830577253 0.0  -0.00259770689536232 0.0147323278883639 0.0  -0.00332447803538372 0.0188540518417901 0.0  -0.00391870224708188 0.0222240648103705 0.0  -0.00443399372967761 0.0251464280274196 0.0  -0.0048953420195484 0.0277628641962755 0.0  -0.00531680793163454 0.0301531161610782 0.0  -0.00570723397763118 0.0323673322976442 0.0  -0.00607261004585043 0.0344394829506594 0.0  -0.00641721636400857 0.0363938424977551 0.0  -0.00674423746290381 0.038248471310551 0.0  -0.00705611876668548 0.0400172380785667 0.0  -0.00735478654640003 0.0417110672277674 0.0  -0.0076417902507621 0.0433387461184789 0.0  -0.00791839828059807 0.044907468209248 0.0  -0.00818566456823844 0.0464232106473395 0.0  -0.00844447615410513 0.0478910040889717 0.0  -0.00869558799683989 0.049315130117364 0.0  -0.00893964896986016 0.0506992686765321 0.0  -0.00917722162736944 0.0520466101699028 0.0  -0.00307916362762652 0.00845993253770983 0.0  -0.00511648378121218 0.0140574236558863 0.0  -0.00654794348792935 0.0179903268769508 0.0  -0.00771833670934519 0.0212059558246736 0.0  -0.00873326280358806 0.0239944423510212 0.0  -0.0096419415489954 0.0264910166855662 0.0  -0.010472067344701 0.0287717685645741 0.0  -0.0112410565388518 0.030884549011308 0.0  -0.0119607069083467 0.0328617721513973 0.0  -0.0126394488560649 0.0347266003263899 0.0  -0.0132835546832461 0.0364962665423094 0.0  -0.0138978409352136 0.0381840041486715 0.0  -0.0144861016252893 0.0398002371114071 0.0  -0.0150513885716872 0.0413533502321481 0.0  -0.015596200036343 0.0428502074291498 0.0  -0.0161226118607171 0.0442965120299515 0.0  -0.0166323711733789 0.0456970642308465 0.0  -0.0171269649525756 0.0470559494709923 0.0  -0.0176076712294518 0.0483766791120995 0.0  -0.0180755980194895 0.0496622974016861 0.0  -0.00450143608163827 0.00779671600042125 0.0  -0.00747979889643562 0.0129553917190241 0.0  -0.00957245299101353 0.0165799749335001 0.0  -0.0112834534163619 0.0195435146019754 0.0  -0.0127671761064557 0.0221133976855607 0.0  -0.014095575563534 0.0244142530379673 0.0  -0.0153091382906205 0.0265162053394528 0.0  -0.0164333252853884 0.0284633543315991 0.0  -0.0174853837438425 0.0302855730341741 0.0  -0.0184776380904994 0.032004207976615 0.0  -0.019419257816341 0.0336351411831816 0.0  -0.0203172842395721 0.0351905685747573 0.0  -0.0211772638366152 0.0366800969303085 0.0  -0.0220036580672318 0.0381114537248183 0.0  -0.0228001191460417 0.0394909647795682 0.0  -0.0235696817502431 0.04082388630965 0.0  -0.0243149000109354 0.0421146421998972 0.0  -0.0250379477448898 0.0433669976114037 0.0  -0.025740693308648 0.0445841886326266 0.0  -0.0264247565124813 0.0457690208572542 0.0  -0.00578693467814601 0.00689660019278853 0.0  -0.00961584410715173 0.0114597167605239 0.0  -0.0123061083538607 0.0146658488415671 0.0  -0.0145057281010253 0.0172872535775917 0.0  -0.0164131652238315 0.0195604486213435 0.0  -0.0181209226472801 0.0215956746660178 0.0  -0.0196810488163772 0.0234549606329396 0.0  -0.0211262757587924 0.0251773150336768 0.0  -0.0224787760423128 0.0267891621055469 0.0  -0.0237543936416902 0.0283093839623813 0.0  -0.0249649166273049 0.0297520290794056 0.0  -0.0261193971433531 0.031127885381986 0.0  -0.0272249656024781 0.0324454505650071 0.0  -0.0282873575467917 0.033711559981386 0.0  -0.0293112681729049 0.0349318091485518 0.0  -0.0303005987866224 0.0361108474617131 0.0  -0.0312586329155928 0.0372525880767413 0.0  -0.0321881651647884 0.0383603614741524 0.0  -0.0330915974470803 0.0394370301422394 0.0  -0.0339710121504133 0.0404850757743166 0.0  -0.00689660019278853 0.00578693467814601 0.0  -0.0114597167605239 0.00961584410715173 0.0  -0.0146658488415671 0.0123061083538607 0.0  -0.0172872535775917 0.0145057281010253 0.0  -0.0195604486213435 0.0164131652238315 0.0  -0.0215956746660178 0.0181209226472801 0.0  -0.0234549606329396 0.0196810488163772 0.0  -0.0251773150336768 0.0211262757587924 0.0  -0.0267891621055469 0.0224787760423128 0.0  -0.0283093839623813 0.0237543936416902 0.0  -0.0297520290794056 0.0249649166273049 0.0  -0.031127885381986 0.0261193971433531 0.0  -0.0324454505650071 0.0272249656024781 0.0  -0.033711559981386 0.0282873575467917 0.0  -0.0349318091485518 0.0293112681729049 0.0  -0.0361108474617131 0.0303005987866224 0.0  -0.0372525880767413 0.0312586329155928 0.0  -0.0383603614741524 0.0321881651647884 0.0  -0.0394370301422394 0.0330915974470803 0.0  -0.0404850757743166 0.0339710121504133 0.0  -0.00779671600042125 0.00450143608163827 0.0  -0.0129553917190241 0.00747979889643562 0.0  -0.0165799749335001 0.00957245299101354 0.0  -0.0195435146019754 0.0112834534163619 0.0  -0.0221133976855607 0.0127671761064557 0.0  -0.0244142530379672 0.014095575563534 0.0  -0.0265162053394528 0.0153091382906205 0.0  -0.0284633543315991 0.0164333252853884 0.0  -0.0302855730341741 0.0174853837438425 0.0  -0.032004207976615 0.0184776380904994 0.0  -0.0336351411831816 0.019419257816341 0.0  -0.0351905685747573 0.0203172842395721 0.0  -0.0366800969303085 0.0211772638366152 0.0  -0.0381114537248183 0.0220036580672318 0.0  -0.0394909647795682 0.0228001191460417 0.0  -0.04082388630965 0.0235696817502431 0.0  -0.0421146421998972 0.0243149000109354 0.0  -0.0433669976114037 0.0250379477448898 0.0  -0.0445841886326266 0.025740693308648 0.0  -0.0457690208572542 0.0264247565124813 0.0  -0.00845993253770983 0.00307916362762652 0.0  -0.0140574236558863 0.00511648378121218 0.0  -0.0179903268769508 0.00654794348792935 0.0  -0.0212059558246736 0.0077183367093452 0.0  -0.0239944423510212 0.00873326280358806 0.0  -0.0264910166855662 0.00964194154899541 0.0  -0.0287717685645741 0.010472067344701 0.0  -0.030884549011308 0.0112410565388518 0.0  -0.0328617721513974 0.0119607069083467 0.0  -0.0347266003263899 0.0126394488560649 0.0  -0.0364962665423094 0.0132835546832461 0.0  -0.0381840041486715 0.0138978409352136 0.0  -0.0398002371114071 0.0144861016252893 0.0  -0.0413533502321481 0.0150513885716872 0.0  -0.0428502074291498 0.015596200036343 0.0  -0.0442965120299515 0.0161226118607171 0.0  -0.0456970642308465 0.0166323711733789 0.0  -0.0470559494709923 0.0171269649525756 0.0  -0.0483766791120995 0.0176076712294518 0.0  -0.0496622974016861 0.0180755980194895 0.0  -0.00886609830577252 0.00156333234492131 0.0  -0.0147323278883639 0.00259770689536232 0.0  -0.0188540518417901 0.00332447803538372 0.0  -0.0222240648103705 0.00391870224708188 0.0  -0.0251464280274196 0.00443399372967761 0.0  -0.0277628641962755 0.0048953420195484 0.0  -0.0301531161610782 0.00531680793163455 0.0  -0.0323673322976442 0.00570723397763118 0.0  -0.0344394829506594 0.00607261004585044 0.0  -0.0363938424977551 0.00641721636400858 0.0  -0.038248471310551 0.00674423746290381 0.0  -0.0400172380785667 0.00705611876668549 0.0  -0.0417110672277674 0.00735478654640003 0.0  -0.0433387461184789 0.0076417902507621 0.0  -0.044907468209248 0.00791839828059807 0.0  -0.0464232106473395 0.00818566456823845 0.0  -0.0478910040889717 0.00844447615410513 0.0  -0.049315130117364 0.00869558799683989 0.0  -0.0506992686765321 0.00893964896986016 0.0  -0.0520466101699028 0.00917722162736945 0.0  -0.00900287216327654 5.51266928894471e-19 0.0  -0.0149595977928712 9.16011177678578e-19 0.0  -0.0191449059820271 1.17228739154332e-18 0.0  -0.0225669068327238 1.38182451096758e-18 0.0  -0.0255343522129114 1.56352813529215e-18 0.0  -0.0281911511270681 1.72621014960216e-18 0.0  -0.030618276581241 1.87482872053126e-18 0.0  -0.0328666505707769 2.01250192100982e-18 0.0  -0.034970767487685 2.14134192337599e-18 0.0  -0.0369552761809989 2.26285803433334e-18 0.0  -0.038838515632682 2.37817319265992e-18 0.0  -0.0406345684791442 2.48814971113589e-18 0.0  -0.0423545276732304 2.59346683722098e-18 0.0  -0.0440073161344636 2.69467094215682e-18 0.0  -0.0456002382920835 2.79220929323783e-18 0.0  -0.0471393635004862 2.8864535312357e-18 0.0  -0.0486298000218709 2.977716446998e-18 0.0  -0.0500758954897796 3.0662642562998e-18 0.0  -0.0514813866172961 3.15232576682695e-18 0.0  -0.0528495130249626 3.23609934812584e-18 0.0  -0.00886609830577252 -0.00156333234492131 0.0  -0.0147323278883639 -0.00259770689536232 0.0  -0.0188540518417901 -0.00332447803538371 0.0  -0.0222240648103705 -0.00391870224708188 0.0  -0.0251464280274196 -0.00443399372967761 0.0  -0.0277628641962755 -0.0048953420195484 0.0  -0.0301531161610782 -0.00531680793163454 0.0  -0.0323673322976442 -0.00570723397763118 0.0  -0.0344394829506594 -0.00607261004585043 0.0  -0.0363938424977551 -0.00641721636400857 0.0  -0.038248471310551 -0.00674423746290381 0.0  -0.0400172380785667 -0.00705611876668548 0.0  -0.0417110672277674 -0.00735478654640003 0.0  -0.0433387461184789 -0.0076417902507621 0.0  -0.044907468209248 -0.00791839828059807 0.0  -0.0464232106473395 -0.00818566456823844 0.0  -0.0478910040889717 -0.00844447615410512 0.0  -0.049315130117364 -0.00869558799683988 0.0  -0.0506992686765321 -0.00893964896986015 0.0  -0.0520466101699028 -0.00917722162736944 0.0  -0.00845993253770983 -0.00307916362762652 0.0  -0.0140574236558863 -0.00511648378121218 0.0  -0.0179903268769508 -0.00654794348792935 0.0  -0.0212059558246736 -0.00771833670934519 0.0  -0.0239944423510212 -0.00873326280358806 0.0  -0.0264910166855662 -0.0096419415489954 0.0  -0.0287717685645741 -0.010472067344701 0.0  -0.030884549011308 -0.0112410565388518 0.0  -0.0328617721513974 -0.0119607069083467 0.0  -0.0347266003263899 -0.0126394488560649 0.0  -0.0364962665423094 -0.01328355468
[...]
POINT_DATA 720
SCALARS PT/PT_inf float
LOOKUP_TABLE default
0.682803686230488 0.682803686230488 0.682803686230488 0.682803686230488 0.682803686230488 0.682803686230488 0.682803686230488 0.682803686230488 0.682803686230488 0.682803686230488 0.682803686230488 0.682803686230488 0.682803686230488 0.682803686230488 0.682803686230488 0.682803686230488 0.682803686230488 0.682803686230488 0.682803686230488 0.682803686230488 0.680659548378038 0.678276950423371 0.67589523732728 0.673899824497455 0.673899824497455 0.672399584872139 0.672399584872139 0.672399584872139 0.671169019954335 0.671169019954335 0.671169019954335 0.669936832477072 0.669936832477072 0.669936832477072 0.668552233043624 0.668552233043624 0.668552233043624 0.668552233043624 0.666992807504907 0.666992807504907 0.67589523732728 0.672399584872139 0.671169019954335 0.669936832477072 0.668552233043624 0.666992807504907 0.665115225772016 0.662850359129468 0.66038676035167 0.66038676035167 0.658138340374545 0.658138340374545 0.656423499730883 0.65516888901767 0.65516888901767 0.65419361414073 0.65419361414073 0.653337136228711 0.653337136228711 0.652407534606582 0.673899824497455 0.669936832477072 0.666992807504907 0.662850359129468 0.66038676035167 0.656423499730883 0.65516888901767 0.65419361414073 0.653337136228711 0.652407534606582 0.651308249426054 0.648631871373616 0.646927259012869 0.64481266285138 0.642369093107841 0.642369093107841 0.639780954969879 0.637274999677293 0.63526085502479 0.63526085502479 0.672399584872139 0.666992807504907 0.66038676035167 0.656423499730883 0.65419361414073 0.652407534606582 0.650052123798362 0.646927259012869 0.64481266285138 0.639780954969879 0.637274999677293 0.63526085502479 0.633931207515113 0.633089307088232 0.631978211006632 0.631238965057055 0.630246333314956 0.627538678160368 0.625602356582599 0.623178281822343 0.669936832477072 0.662850359129468 0.656423499730883 0.653337136228711 0.650052123798362 0.646927259012869 0.642369093107841 0.637274999677293 0.633931207515113 0.633089307088232 0.631978211006632 0.630246333314956 0.627538678160368 0.623178281822343 0.620471535447349 0.615538857646314 0.614409625241556 0.612765403598176 0.610920199993581 0.608342808426193 0.669936832477072 0.658138340374545 0.65419361414073 0.650052123798362 0.64481266285138 0.639780954969879 0.63526085502479 0.633089307088232 0.631238965057055 0.627538678160368 0.623178281822343 0.617732951397927 0.615538857646314 0.613783835209782 0.610920199993581 0.606061644561762 0.604777161288174 0.601982284430744 0.597716646182944 0.594744193516301 0.668552233043624 0.656423499730883 0.652407534606582 0.646927259012869 0.639780954969879 0.63526085502479 0.632519205788415 0.630246333314956 0.625602356582599 0.620471535447349 0.615538857646314 0.613783835209782 0.608342808426193 0.606061644561762 0.603256414809606 0.600183191319464 0.594744193516301 0.589978018642779 0.588798416524421 0.586455843892183 0.666992807504907 0.656423499730883 0.651308249426054 0.64481266285138 0.637274999677293 0.633089307088232 0.631238965057055 0.627538678160368 0.620471535447349 0.615538857646314 0.612765403598176 0.608342808426193 0.604777161288174 0.601982284430744 0.597716646182944 0.591951700529759 0.588798416524421 0.58740424471852 0.583256989282027 0.578337580436414 0.666992807504907 0.65516888901767 0.651308249426054 0.64481266285138 0.637274999677293 0.633089307088232 0.631238965057055 0.625602356582599 0.620471535447349 0.615538857646314 0.610920199993581 0.606061644561762 0.604075428972653 0.600183191319464 0.594744193516301 0.589978018642779 0.588057040346381 0.585055323069919 0.581060434789353 0.571409159620653 0.666992807504907 0.656423499730883 0.651308249426054 0.64481266285138 0.637274999677293 0.633089307088232 0.631238965057055 0.627538678160368 0.620471535447349 0.615538857646314 0.612765403598176 0.608342808426193 0.604777161288174 0.601982284430744 0.597716646182944 0.591951700529759 0.588798416524421 0.58740424471852 0.583256989282027 0.578337580436414 0.668552233043624 0.656423499730883 0.652407534606582 0.646927259012869 0.639780954969879 0.63526085502479 0.632519205788415 0.630246333314956 0.625602356582599 0.620471535447349 0.615538857646314 0.613783835209782 0.608342808426193 0.606061644561762 0.603256414809606 0.600183191319464 0.594744193516301 0.589978018642779 0.588798416524421 0.586455843892183 0.669936832477072 0.658138340374545 0.65419361414073 0.650052123798362 0.64481266285138 0.639780954969879 0.63526085502479 0.633089307088232 0.631238965057055 0.627538678160368 0.623178281822343 0.617732951397927 0.615538857646314 0.613783835209782 0.610920199993581 0.606061644561762 0.604777161288174 0.601982284430744 0.597716646182944 0.594744193516301 0.669936832477072 0.662850359129468 0.656423499730883 0.653337136228711 0.650052123798362 0.646927259012869 0.642369093107841 0.637274999677293 0.633931207515113 0.633089307088232 0.631978211006632 0.630246333314956 0.627538678160368 0.623178281822343 0.620471535447349 0.615538857646314 0.614409625241556 0.612765403598176 0.610920199993581 0.608342808426193 0.672399584872139 0.666992807504907 0.66038676035167 0.656423499730883 0.65419361414073 0.652407534606582 0.650052123798362 0.646927259012869 0.64481266285138 0.639780954969879 0.637274999677293 0.63526085502479 0.633931207515113 0.633089307088232 0.631978211006632 0.631238965057055 0.630246333314956 0.627538678160368 0.625602356582599 0.623178281822343 0.673899824497455 0.669936832477072 0.666992807504907 0.662850359129468 0.66038676035167 0.656423499730883 0.65516888901767 0.65419361414073 0.653337136228711 0.652407534606582 0.651308249426054 0.648631871373616 0.646927259012869 0.64481266285138 0.642369093107841 0.642369093107841 0.639780954969879 0.637274999677293 0.63526085502479 0.63526085502479 0.67589523732728 0.672399584872139 0.671169019954335 0.669936832477072 0.668552233043624 0.666992807504907 0.665115225772016 0.662850359129468 0.66038676035167 0.66038676035167 0.658138340374545 0.658138340374545 0.656423499730883 0.65516888901767 0.65516888901767 0.65419361414073 0.65419361414073 0.653337136228711 0.653337136228711 0.652407534606582 0.680659548378038 0.678276950423371 0.67589523732728 0.673899824497455 0.673899824497455 0.672399584872139 0.672399584872139 0.672399584872139 0.671169019954335 0.671169019954335 0.671169019954335 0.669936832477072 0.669936832477072 0.669936832477072 0.668552233043624 0.668552233043624 0.668552233043624 0.668552233043624 0.666992807504907 0.666992807504907 0.682803686230488 0.682803686230488 0.682803686230488 0.682803686230488 0.682803686230488 0.682803686230488 0.682803686230488 0.682803686230488 0.682803686230488 0.682803686230488 0.682803686230488 0.682803686230488 0.682803686230488 0.682803686230488 0.682803686230488 0.682803686230488 0.682803686230488 0.682803686230488 0.682803686230488 0.682803686230488 0.684577091732271 0.685823434356675 0.686814139736628 0.686814139736628 0.688264638976853 0.460567451303549 0.460567451303549 0.462288008924323 0.462288008924323 0.462288008924323 0.462574008120742 0.462574008120742 0.462574008120742 0.461239180238734 0.461239180238734 0.461239180238734 0.461447458498078 0.461447458498078 0.461447458498078 0.461447458498078 0.686814139736628 0.460567451303549 0.462574008120742 0.461239180238734 0.461447458498078 0.463671676192628 0.464725839666795 0.464725839666795 0.46323898882758 0.461908316770754 0.461908316770754 0.462682644624798 0.465437436502111 0.465437436502111 0.468838670790712 0.468838670790712 0.470164847946913 0.470164847946913 0.470164847946913 0.468747733717405 0.688264638976853 0.461239180238734 0.463671676192628 0.464725839666795 0.461908316770754 0.462682644624798 0.465437436502111 0.468838670790712 0.470164847946913 0.468747733717405 0.467451412743187 0.468409428314828 0.468409428314828 0.471958081787532 0.475916870940754 0.475916870940754 0.476894477168825 0.476894477168825 0.474584492174343 0.474584492174343 0.462288008924323 0.463671676192628 0.46323898882758 0.465437436502111 0.468838670790712 0.468747733717405 0.467451412743187 0.468409428314828 0.471958081787532 0.475916870940754 0.476894477168825 0.474584492174343 0.47202172219008 0.471244474869183 0.471244474869183 0.472736467985197 0.472736467985197 0.476624532191444 0.476624532191444 0.476624532191444 0.462574008120742 0.46323898882758 0.465437436502111 0.470164847946913 0.467451412743187 0.471958081787532 0.475916870940754 0.476894477168825 0.47202172219008 0.471244474869183 0.471244474869183 0.472736467985197 0.476624532191444 0.476624532191444 0.48219982016173 0.48219982016173 0.486542411163282 0.48678525214694 0.48678525214694 0.483568285832009 0.461239180238734 0.461908316770754 0.470164847946913 0.467451412743187 0.471958081787532 0.476894477168825 0.474584492174343 0.471244474869183 0.472736467985197 0.476624532191444 0.476624532191444 0.48219982016173 0.486542411163282 0.486542411163282 0.48678525214694 0.483568285832009 0.480081227858239 0.478710871096091 0.478710871096091 0.478710871096091 0.461447458498078 0.462682644624798 0.468747733717405 0.471958081787532 0.475916870940754 0.474584492174343 0.471244474869183 0.472736467985197 0.476624532191444 0.48219982016173 0.48219982016173 0.486542411163282 0.483568285832009 0.480081227858239 0.480081227858239 0.478710871096091 0.478710871096091 0.480064001117501 0.480064001117501 0.484305511036354 0.461447458498078 0.465437436502111 0.467451412743187 0.471958081787532 0.476894477168825 0.47202172219008 0.472736467985197 0.476624532191444 0.48219982016173 0.48219982016173 0.486542411163282 0.483568285832009 0.480081227858239 0.478710871096091 0.478710871096091 0.480064001117501 0.480064001117501 0.480064001117501 0.484305511036354 0.484305511036354 0.461447458498078 0.465437436502111 0.467451412743187 0.471958081787532 0.474584492174343 0.471244474869183 0.472736467985197 0.476624532191444 0.48219982016173 0.486542411163282 0.48678525214694 0.483568285832009 0.480081227858239 0.478710871096091 0.478710871096091 0.480064001117501 0.480064001117501 0.484305511036354 0.484305511036354 0.484305511036354 0.461447458498078 0.465437436502111 0.467451412743187 0.471958081787532 0.476894477168825 0.47202172219008 0.472736467985197 0.476624532191444 0.48219982016173 0.48219982016173 0.486542411163282 0.483568285832009 0.480081227858239 0.478710871096091 0.478710871096091 0.480064001117501 0.480064001117501 0.480064001117501 0.484305511036354 0.484305511036354 0.461447458498078 0.462682644624798 0.468747733717405 0.471958081787532 0.475916870940754 0.474584492174343 0.471244474869183 0.472736467985197 0.476624532191444 0.48219982016173 0.48219982016173 0.486542411163282 0.483568285832009 0.480081227858239 0.480081227858239 0.478710871096091 0.478710871096091 0.480064001117501 0.480064001117501 0.484305511036354 0.461239180238734 0.461908316770754 0.470164847946913 0.467451412743187 0.471958081787532 0.476894477168825 0.474584492174343 0.471244474869183 0.472736467985197 0.476624532191444 0.476624532191444 0.48219982016173 0.486542411163282 0.486542411163282 0.48678525214694 0.483568285832009 0.480081227858239 0.478710871096091 0.478710871096091 0.478710871096091 0.462574008120742 0.46323898882758 0.465437436502111 0.470164847946913 0.467451412743187 0.471958081787532 0.475916870940754 0.476894477168825 0.47202172219008 0.471244474869183 0.471244474869183 0.472736467985197 0.476624532191444 0.476624532191444 0.48219982016173 0.48219982016173 0.486542411163282 0.48678525214694 0.48678525214694 0.483568285832009 0.462288008924323 0.463671676192628 0.46323898882758 0.465437436502111 0.468838670790712 0.468747733717405 0.467451412743187 0.468409428314828 0.471958081787532 0.475916870940754 0.476894477168825 0.474584492174343 0.47202172219008 0.471244474869183 0.471244474869183 0.472736467985197 0.472736467985197 0.476624532191444 0.476624532191444 0.476624532191444 0.688264638976853 0.461239180238734 0.463671676192628 0.464725839666795 0.461908316770754 0.462682644624798 0.465437436502111 0.468838670790712 0.470164847946913 0.468747733717405 0.467451412743187 0.468409428314828 0.468409428314828 0.471958081787532 0.475916870940754 0.475916870940754 0.476894477168825 0.476894477168825 0.474584492174343 0.474584492174343 0.686814139736628 0.460567451303549 0.462574008120742 0.461239180238734 0.461447458498078 0.463671676192628 0.464725839666795 0.464725839666795 0.46323898882758 0.461908316770754 0.461908316770754 0.462682644624798 0.465437436502111 0.465437436502111 0.468838670790712 0.468838670790712 0.470164847946913 0.470164847946913 0.470164847946913 0.468747733717405 0.684577091732271 0.685823434356675 0.686814139736628 0.686814139736628 0.688264638976853 0.460567451303549 0.460567451303549 0.462288008924323 0.462288008924323 0.462288008924323 0.462574008120742 0.462574008120742 0.462574008120742 0.461239180238734 0.461239180238734 0.461239180238734 0.461447458498078 0.461447458498078 0.461447458498078 0.461447458498078 SCALARS TT/TT_inf float
LOOKUP_TABLE default