# vtk DataFile Version 3.0
vtk output
ASCII
DATASET UNSTRUCTURED_GRID
POINTS 324 float
3.085804e-01	-3.230213e-03	0.0	3.089526e-01	-2.604522e-03	0.0	3.492715e-01	5.209667e-03	0.0	3.095147e-01	-1.961682e-03	0.0	3.476966e-01	4.400654e-03	0.0	3.101596e-01	-1.396191e-03	0.0	3.109480e-01	-1.059579e-03	0.0	3.117682e-01	-7.994838e-04	0.0	3.126276e-01	-7.984141e-04	0.0	3.134890e-01	-8.638602e-04	0.0	3.143517e-01	-9.256926e-04	0.0	3.152157e-01	-9.854075e-04	0.0	3.469004e-01	4.013196e-03	0.0	3.160808e-01	-1.043356e-03	0.0	3.461063e-01	3.621450e-03	0.0	3.453074e-01	3.239690e-03	0.0	3.444980e-01	2.880663e-03	0.0	3.169474e-01	-1.093644e-03	0.0	3.436813e-01	2.538755e-03	0.0	3.178151e-01	-1.141949e-03	0.0	3.428659e-01	2.193951e-03	0.0	3.420457e-01	1.861087e-03	0.0	3.186839e-01	-1.187218e-03	0.0	3.412151e-01	1.555801e-03	0.0	3.403773e-01	1.271143e-03	0.0	3.395409e-01	9.828459e-04	0.0	3.387002e-01	7.085158e-04	0.0	3.378498e-01	4.667364e-04	0.0	3.195542e-01	-1.220909e-03	0.0	3.369925e-01	2.518513e-04	0.0	3.361364e-01	3.350940e-05	0.0	3.352778e-01	-1.730286e-04	0.0	3.344121e-01	-3.452022e-04	0.0	3.335416e-01	-4.895788e-04	0.0	3.326712e-01	-6.311072e-04	0.0	3.318010e-01	-7.718520e-04	0.0	3.204255e-01	-1.250547e-03	0.0	3.309276e-01	-8.860647e-04	0.0	3.300515e-01	-9.725823e-04	0.0	3.291748e-01	-1.047109e-03	0.0	3.282993e-01	-1.128879e-03	0.0	3.274245e-01	-1.210247e-03	0.0	3.265490e-01	-1.276510e-03	0.0	3.212979e-01	-1.271940e-03	0.0	3.221712e-01	-1.293108e-03	0.0	3.230453e-01	-1.314082e-03	0.0	3.239203e-01	-1.328909e-03	0.0	3.247961e-01	-1.331615e-03	0.0	3.256726e-01	-1.316176e-03	0.0	3.083361e-01	-3.913094e-03	0.0	3.484891e-01	4.795396e-03	0.0	3.500443e-01	5.641354e-03	0.0	3.505637e-01	5.940783e-03	0.0	3.510818e-01	6.242514e-03	0.0	3.516005e-01	6.543308e-03	0.0	3.521204e-01	6.842176e-03	0.0	3.526394e-01	7.142492e-03	0.0	3.531554e-01	7.448047e-03	0.0	3.536673e-01	7.760462e-03	0.0	3.541757e-01	8.078652e-03	0.0	3.546812e-01	8.401356e-03	0.0	3.551850e-01	8.726799e-03	0.0	3.556884e-01	9.052778e-03	0.0	3.561926e-01	9.377406e-03	0.0	3.566970e-01	9.701935e-03	0.0	3.571994e-01	1.002937e-02	0.0	3.576988e-01	1.036143e-02	0.0	3.581956e-01	1.069725e-02	0.0	3.586906e-01	1.103562e-02	0.0	3.591848e-01	1.137519e-02	0.0	3.596791e-01	1.171455e-02	0.0	3.601738e-01	1.205311e-02	0.0	3.606683e-01	1.239196e-02	0.0	3.611617e-01	1.273236e-02	0.0	3.616532e-01	1.307533e-02	0.0	3.621427e-01	1.342115e-02	0.0	3.626299e-01	1.376992e-02	0.0	3.631150e-01	1.412154e-02	0.0	3.635988e-01	1.447491e-02	0.0	3.640822e-01	1.482856e-02	0.0	3.645663e-01	1.518121e-02	0.0	3.650508e-01	1.553303e-02	0.0	3.655351e-01	1.588498e-02	0.0	3.660186e-01	1.623800e-02	0.0	3.665004e-01	1.659304e-02	0.0	3.669800e-01	1.695083e-02	0.0	3.674573e-01	1.731157e-02	0.0	3.679320e-01	1.767539e-02	0.0	3.684042e-01	1.804240e-02	0.0	3.688736e-01	1.841269e-02	0.0	3.693407e-01	1.878566e-02	0.0	3.698063e-01	1.916020e-02	0.0	3.702714e-01	1.953521e-02	0.0	3.707369e-01	1.990957e-02	0.0	3.712032e-01	2.028254e-02	0.0	3.716699e-01	2.065485e-02	0.0	3.721360e-01	2.102757e-02	0.0	3.726007e-01	2.140178e-02	0.0	3.730631e-01	2.177851e-02	0.0	3.735228e-01	2.215833e-02	0.0	3.739796e-01	2.254132e-02	0.0	3.744334e-01	2.292759e-02	0.0	3.748840e-01	2.331720e-02	0.0	3.753316e-01	2.371001e-02	0.0	3.757771e-01	2.410498e-02	0.0	3.762213e-01	2.450094e-02	0.0	3.766655e-01	2.489671e-02	0.0	3.771105e-01	2.529122e-02	0.0	3.775554e-01	2.568542e-02	0.0	3.779981e-01	2.608187e-02	0.0	3.784375e-01	2.648149e-02	0.0	3.788740e-01	2.688399e-02	0.0	3.793093e-01	2.728748e-02	0.0	3.797452e-01	2.768994e-02	0.0	3.801809e-01	2.809223e-02	0.0	3.806148e-01	2.849608e-02	0.0	3.810456e-01	2.890280e-02	0.0	3.814733e-01	2.931248e-02	0.0	3.818978e-01	2.972501e-02	0.0	3.823199e-01	3.013972e-02	0.0	3.827409e-01	3.055504e-02	0.0	3.831625e-01	3.096943e-02	0.0	3.835847e-01	3.138273e-02	0.0	3.840066e-01	3.179598e-02	0.0	3.844271e-01	3.221022e-02	0.0	3.848451e-01	3.262651e-02	0.0	3.852599e-01	3.304552e-02	0.0	3.856716e-01	3.346721e-02	0.0	3.860802e-01	3.389150e-02	0.0	3.864856e-01	3.431827e-02	0.0	3.868883e-01	3.474732e-02	0.0	3.872888e-01	3.517786e-02	0.0	3.876882e-01	3.560898e-02	0.0	3.880875e-01	3.603977e-02	0.0	3.884875e-01	3.646937e-02	0.0	3.888881e-01	3.689801e-02	0.0	3.892881e-01	3.732663e-02	0.0	3.896867e-01	3.775620e-02	0.0	3.900826e-01	3.818768e-02	0.0	3.904754e-01	3.862152e-02	0.0	3.908652e-01	3.905758e-02	0.0	3.912521e-01	3.949567e-02	0.0	3.916363e-01	3.993562e-02	0.0	3.920181e-01	4.037717e-02	0.0	3.923980e-01	4.081987e-02	0.0	3.927765e-01	4.126324e-02	0.0	3.931543e-01	4.170701e-02	0.0	3.935849e-01	4.208953e-02	0.0	3.941278e-01	4.229537e-02	0.0	3.947040e-01	4.232142e-02	0.0	3.952414e-01	4.210361e-02	0.0	3.957366e-01	4.165683e-02	0.0	3.960041e-01	4.105694e-02	0.0	3.960432e-01	4.038936e-02	0.0	3.957582e-01	3.978330e-02	0.0	3.954517e-01	3.918439e-02	0.0	3.951172e-01	3.860033e-02	0.0	3.947718e-01	3.802233e-02	0.0	3.944288e-01	3.744266e-02	0.0	3.940753e-01	3.686905e-02	0.0	3.937058e-01	3.630534e-02	0.0	3.933294e-01	3.574593e-02	0.0	3.929527e-01	3.518647e-02	0.0	3.925764e-01	3.462648e-02	0.0	3.921933e-01	3.407094e-02	0.0	3.918060e-01	3.351797e-02	0.0	3.914216e-01	3.296284e-02	0.0	3.910376e-01	3.240710e-02	0.0	3.906531e-01	3.185160e-02	0.0	3.902689e-01	3.129564e-02	0.0	3.898861e-01	3.073847e-02	0.0	3.895048e-01	3.018008e-02	0.0	3.891242e-01	2.962103e-02	0.0	3.887436e-01	2.906182e-02	0.0	3.883628e-01	2.850254e-02	0.0	3.879818e-01	2.794325e-02	0.0	3.876008e-01	2.738379e-02	0.0	3.872202e-01	2.682392e-02	0.0	3.868400e-01	2.626362e-02	0.0	3.864595e-01	2.570334e-02	0.0	3.860783e-01	2.514349e-02	0.0	3.856963e-01	2.458394e-02	0.0	3.853143e-01	2.402435e-02	0.0	3.849324e-01	2.346457e-02	0.0	3.845505e-01	2.290465e-02	0.0	3.841687e-01	2.234461e-02	0.0	3.837868e-01	2.178450e-02	0.0	3.834044e-01	2.122460e-02	0.0	3.830209e-01	2.066543e-02	0.0	3.826354e-01	2.010755e-02	0.0	3.822472e-01	1.955150e-02	0.0	3.818563e-01	1.899729e-02	0.0	3.814637e-01	1.844420e-02	0.0	3.810706e-01	1.789143e-02	0.0	3.806781e-01	1.733822e-02	0.0	3.802864e-01	1.678436e-02	0.0	3.798946e-01	1.623061e-02	0.0	3.795014e-01	1.567777e-02	0.0	3.791060e-01	1.512656e-02	0.0	3.787075e-01	1.457756e-02	0.0	3.783051e-01	1.403133e-02	0.0	3.778993e-01	1.348775e-02	0.0	3.774917e-01	1.294545e-02	0.0	3.770845e-01	1.240292e-02	0.0	3.766786e-01	1.185945e-02	0.0	3.762731e-01	1.131572e-02	0.0	3.758669e-01	1.077254e-02	0.0	3.754589e-01	1.023076e-02	0.0	3.750481e-01	9.691202e-03	0.0	3.746336e-01	9.154567e-03	0.0	3.742145e-01	8.621531e-03	0.0	3.737901e-01	8.092786e-03	0.0	3.733598e-01	7.569026e-03	0.0	3.729239e-01	7.049953e-03	0.0	3.724845e-01	6.533896e-03	0.0	3.720439e-01	6.019046e-03	0.0	3.716041e-01	5.503582e-03	0.0	3.711665e-01	4.986414e-03	0.0	3.707284e-01	4.469844e-03	0.0	3.702861e-01	3.956989e-03	0.0	3.698379e-01	3.449392e-03	0.0	3.693834e-01	2.947656e-03	0.0	3.689248e-01	2.449865e-03	0.0	3.684664e-01	1.951943e-03	0.0	3.680095e-01	1.452949e-03	0.0	3.675499e-01	9.565835e-04	0.0	3.670845e-01	4.659658e-04	0.0	3.666122e-01	-1.784669e-05	0.0	3.661336e-01	-4.952477e-04	0.0	3.656532e-01	-9.705890e-04	0.0	3.651745e-01	-1.447378e-03	0.0	3.646928e-01	-1.920808e-03	0.0	3.642040e-01	-2.386786e-03	0.0	3.637098e-01	-2.846603e-03	0.0	3.632161e-01	-3.306775e-03	0.0	3.627206e-01	-3.764582e-03	0.0	3.622181e-01	-4.214493e-03	0.0	3.617094e-01	-4.657001e-03	0.0	3.612008e-01	-5.099338e-03	0.0	3.606927e-01	-5.541840e-03	0.0	3.601798e-01	-5.978494e-03	0.0	3.596596e-01	-6.406048e-03	0.0	3.591319e-01	-6.823864e-03	0.0	3.585997e-01	-7.235503e-03	0.0	3.580685e-01	-7.647979e-03	0.0	3.575381e-01	-8.061233e-03	0.0	3.570034e-01	-8.468280e-03	0.0	3.564613e-01	-8.865139e-03	0.0	3.558462e-01	-9.296533e-03	0.0	3.552260e-01	-9.720815e-03	0.0	3.546077e-01	-1.014782e-02	0.0	3.539899e-01	-1.057572e-02	0.0	3.533677e-01	-1.099729e-02	0.0	3.527373e-01	-1.140643e-02	0.0	3.520973e-01	-1.180049e-02	0.0	3.514471e-01	-1.217751e-02	0.0	3.507891e-01	-1.254059e-02	0.0	3.501287e-01	-1.289942e-02	0.0	3.494709e-01	-1.326294e-02	0.0	3.488141e-01	-1.362821e-02	0.0	3.481530e-01	-1.398570e-02	0.0	3.474837e-01	-1.432725e-02	0.0	3.468049e-01	-1.464935e-02	0.0	3.461162e-01	-1.494947e-02	0.0	3.454202e-01	-1.523238e-02	0.0	3.447227e-01	-1.551103e-02	0.0	3.440278e-01	-1.579619e-02	0.0	3.433332e-01	-1.608136e-02	0.0	3.426333e-01	-1.635326e-02	0.0	3.419253e-01	-1.660284e-02	0.0	3.412089e-01	-1.682658e-02	0.0	3.404850e-01	-1.702427e-02	0.0	3.397580e-01	-1.720959e-02	0.0	3.390323e-01	-1.739950e-02	0.0	3.383080e-01	-1.759389e-02	0.0	3.375808e-01	-1.777635e-02	0.0	3.368479e-01	-1.793316e-02	0.0	3.361094e-01	-1.805972e-02	0.0	3.353663e-01	-1.815450e-02	0.0	3.346213e-01	-1.823091e-02	0.0	3.338768e-01	-1.830991e-02	0.0	3.331331e-01	-1.839468e-02	0.0	3.323881e-01	-1.846271e-02	0.0	3.316411e-01	-1.849889e-02	0.0	3.308935e-01	-1.850123e-02	0.0	3.301464e-01	-1.848006e-02	0.0	3.293995e-01	-1.846009e-02	0.0	3.286529e-01	-1.844482e-02	0.0	3.279072e-01	-1.841066e-02	0.0	3.271642e-01	-1.834286e-02	0.0	3.264256e-01	-1.823925e-02	0.0	3.256910e-01	-1.811200e-02	0.0	3.249563e-01	-1.798743e-02	0.0	3.242212e-01	-1.786757e-02	0.0	3.234899e-01	-1.772845e-02	0.0	3.227665e-01	-1.755449e-02	0.0	3.220536e-01	-1.734303e-02	0.0	3.213504e-01	-1.710210e-02	0.0	3.206490e-01	-1.685733e-02	0.0	3.199448e-01	-1.662183e-02	0.0	3.192454e-01	-1.637375e-02	0.0	3.185593e-01	-1.609226e-02	0.0	3.178902e-01	-1.577352e-02	0.0	3.172381e-01	-1.542217e-02	0.0	3.165914e-01	-1.506178e-02	0.0	3.159437e-01	-1.470419e-02	0.0	3.153142e-01	-1.431650e-02	0.0	3.146902e-01	-1.392078e-02	0.0	3.140682e-01	-1.352281e-02	0.0	3.134652e-01	-1.309771e-02	0.0	3.128945e-01	-1.263095e-02	0.0	3.123623e-01	-1.212149e-02	0.0	3.118408e-01	-1.160155e-02	0.0	3.113118e-01	-1.109011e-02	0.0	3.108081e-01	-1.055470e-02	0.0	3.103577e-01	-9.974589e-03	0.0	3.099574e-01	-9.359202e-03	0.0	3.095563e-01	-8.745006e-03	0.0	3.091991e-01	-8.105295e-03	0.0	3.088775e-01	-7.447271e-03	0.0	3.085931e-01	-6.773398e-03	0.0	3.083583e-01	-6.080923e-03	0.0	3.082394e-01	-5.362770e-03	0.0	3.082284e-01	-4.634417e-03	0.0	
CELLS 324	972
2	51	52	2	52	53	2	53	54	2	54	55	2	55	56	2	56	57	2	57	58	2	58	59	2	59	60	2	60	61	2	61	62	2	62	63	2	63	64	2	64	65	2	65	66	2	66	67	2	67	68	2	68	69	2	69	70	2	70	71	2	71	72	2	72	73	2	73	74	2	74	75	2	75	76	2	76	77	2	77	78	2	78	79	2	79	80	2	80	81	2	81	82	2	82	83	2	83	84	2	84	85	2	85	86	2	86	87	2	87	88	2	88	89	2	89	90	2	90	91	2	91	92	2	92	93	2	93	94	2	94	95	2	95	96	2	96	97	2	97	98	2	98	99	2	99	100	2	100	101	2	101	102	2	102	103	2	103	104	2	104	105	2	105	106	2	106	107	2	107	108	2	108	109	2	109	110	2	110	111	2	111	112	2	112	113	2	113	114	2	114	115	2	115	116	2	116	117	2	117	118	2	118	119	2	119	120	2	120	121	2	121	122	2	122	123	2	123	124	2	124	125	2	125	126	2	126	127	2	127	128	2	128	129	2	129	130	2	130	131	2	131	132	2	132	133	2	133	134	2	134	135	2	135	136	2	136	137	2	137	138	2	138	139	2	139	140	2	140	141	2	141	142	2	142	143	2	143	144	2	144	145	2	145	146	2	146	147	2	147	148	2	148	149	2	149	150	2	150	151	2	151	152	2	152	153	2	153	154	2	154	155	2	155	156	2	156	157	2	157	158	2	158	159	2	159	160	2	160	161	2	161	162	2	162	163	2	163	164	2	164	165	2	165	166	2	166	167	2	167	168	2	168	169	2	169	170	2	170	171	2	171	172	2	172	173	2	173	174	2	174	175	2	175	176	2	176	177	2	177	178	2	178	179	2	179	180	2	180	181	2	181	182	2	182	183	2	183	184	2	184	185	2	185	186	2	186	187	2	187	188	2	188	189	2	189	190	2	190	191	2	191	192	2	192	193	2	193	194	2	194	195	2	195	196	2	196	197	2	197	198	2	198	199	2	199	200	2	200	201	2	201	202	2	202	203	2	203	204	2	204	205	2	205	206	2	206	207	2	207	208	2	208	209	2	209	210	2	210	211	2	211	212	2	212	213	2	213	214	2	214	215	2	215	216	2	216	217	2	217	218	2	218	219	2	219	220	2	220	221	2	221	222	2	222	223	2	223	224	2	224	225	2	225	226	2	226	227	2	227	228	2	228	229	2	229	230	2	230	231	2	231	232	2	232	233	2	233	234	2	234	235	2	235	236	2	236	237	2	237	238	2	238	239	2	239	240	2	240	241	2	241	242	2	242	243	2	243	244	2	244	245	2	245	246	2	246	247	2	247	248	2	248	249	2	249	250	2	250	251	2	251	252	2	252	253	2	253	254	2	254	255	2	255	256	2	256	257	2	257	258	2	258	259	2	259	260	2	260	261	2	261	262	2	262	263	2	263	264	2	264	265	2	265	266	2	266	267	2	267	268	2	268	269	2	269	270	2	270	271	2	271	272	2	272	273	2	273	274	2	274	275	2	275	276	2	276	277	2	277	278	2	278	279	2	279	280	2	280	281	2	281	282	2	282	283	2	283	284	2	284	285	2	285	286	2	286	287	2	287	288	2	288	289	2	289	290	2	290	291	2	291	292	2	292	293	2	293	294	2	294	295	2	295	296	2	296	297	2	297	298	2	298	299	2	299	300	2	300	301	2	301	302	2	302	303	2	303	304	2	304	305	2	305	306	2	306	307	2	307	308	2	308	309	2	309	310	2	310	311	2	311	312	2	312	313	2	313	314	2	314	315	2	315	316	2	316	317	2	317	318	2	318	319	2	319	320	2	320	321	2	321	322	2	322	323	2	323	49	2	49	0	2	0	1	2	1	3	2	3	5	2	5	6	2	6	7	2	7	8	2	8	9	2	9	10	2	10	11	2	11	13	2	13	17	2	17	19	2	19	22	2	22	28	2	28	36	2	36	43	2	43	44	2	44	45	2	45	46	2	46	47	2	47	48	2	48	42	2	42	41	2	41	40	2	40	39	2	39	38	2	38	37	2	37	35	2	35	34	2	34	33	2	33	32	2	32	31	2	31	30	2	30	29	2	29	27	2	27	26	2	26	25	2	25	24	2	24	23	2	23	21	2	21	20	2	20	18	2	18	16	2	16	15	2	15	14	2	14	12	2	12	4	2	4	50	2	50	2	2	2	51	
CELL_TYPES 324
3	3	3	3	3	3	3	3	3	3	3	3	3	3	3	3	3	3	3	3	3	3	3	3	3	3	3	3	3	3	3	3	3	3	3	3	3	3	3	3	3	3	3	3	3	3	3	3	3	3	3	3	3	3	3	3	3	3	3	3	3	3	3	3	3	3	3	3	3	3	3	3	3	3	3	3	3	3	3	3	3	3	3	3	3	3	3	3	3	3	3	3	3	3	3	3	3	3	3	3	3	3	3	3	3	3	3	3	3	3	3	3	3	3	3	3	3	3	3	3	3	3	3	3	3	3	3	3	3	3	3	3	3	3	3	3	3	3	3	3	3	3	3	3	3	3	3	3	3	3	3	3	3	3	3	3	3	3	3	3	3	3	3	3	3	3	3	3	3	3	3	3	3	3	3	3	3	3	3	3	3	3	3	3	3	3	3	3	3	3	3	3	3	3	3	3	3	3	3	3	3	3	3	3	3	3	3	3	3	3	3	3	3	3	3	3	3	3	3	3	3	3	3	3	3	3	3	3	3	3	3	3	3	3	3	3	3	3	3	3	3	3	3	3	3	3	3	3	3	3	3	3	3	3	3	3	3	3	3	3	3	3	3	3	3	3	3	3	3	3	3	3	3	3	3	3	3	3	3	3	3	3	3	3	3	3	3	3	3	3	3	3	3	3	3	3	3	3	3	3	3	3	3	3	3	3	3	3	3	3	3	3	3	3	3	3	3	3	3	3	3	3	3	3	
POINT_DATA 324

SCALARS Sensitivity_x float 1
LOOKUP_TABLE default
2.145025e-01	2.135694e-01	3.670174e-04	1.350436e-01	-1.866225e-03	6.345940e-02	5.434902e-03	7.742824e-03	1.674364e-02	1.634911e-02	8.644052e-03	6.063591e-03	-6.448953e-03	5.123028e-03	-2.058282e-03	3.561606e-03	9.083588e-04	4.458799e-03	-4.292329e-03	3.554233e-03	-1.472918e-03	3.540536e-03	3.432901e-03	1.318296e-03	-3.390023e-03	-1.168050e-03	3.457353e-03	2.585466e-03	3.220236e-03	-1.440987e-03	-3.983591e-04	2.947565e-03	1.732790e-03	-6.052476e-04	9.315097e-04	3.016131e-03	2.939397e-03	2.592598e-03	4.941422e-04	-9.937533e-04	3.684714e-04	1.911065e-03	2.625693e-03	2.705366e-03	2.831878e-03	2.999585e-03	2.469923e-03	1.840779e-03	2.336307e-03	1.086245e-01	3.945293e-03	-1.639849e-03	-5.895258e-03	-4.280270e-03	-3.840687e-03	-3.937911e-03	-6.012339e-04	2.553545e-03	1.382220e-03	-8.453448e-04	-3.734950e-03	-4.452199e-03	-4.237483e-03	-5.892606e-03	-2.847067e-03	5.323277e-04	-7.613658e-04	-2.016448e-03	-3.977718e-03	-5.095864e-03	-3.419990e-03	-4.083129e-03	-5.496012e-03	-2.607371e-03	-1.081619e-03	-1.693639e-03	-1.913632e-03	-3.709671e-03	-5.379355e-03	-6.163497e-03	-7.776840e-03	-6.693498e-03	-2.727271e-03	-3.115836e-03	-5.135099e-03	-3.132172e-03	-1.089054e-03	-9.675295e-04	-1.680639e-03	-3.896490e-03	-7.622223e-03	-9.045370e-03	-9.265156e-03	-1.185801e-02	-1.183369e-02	-8.253558e-03	-6.220311e-03	-6.041756e-03	-4.955910e-03	-3.074529e-03	-2.516510e-03	-3.099726e-03	-4.909166e-03	-9.305999e-03	-1.383275e-02	-1.542024e-02	-1.624431e-02	-1.547367e-02	-1.170716e-02	-7.579037e-03	-9.703460e-03	-1.734370e-02	-1.973770e-02	-1.744325e-02	-1.555884e-02	-1.406455e-02	-1.285894e-02	-1.414291e-02	-1.985889e-02	-2.570678e-02	-2.893057e-02	-3.121889e-02	-3.081525e-02	-2.906340e-02	-2.876622e-02	-2.820986e-02	-2.879160e-02	-3.212386e-02	-3.688338e-02	-4.331277e-02	-5.151401e-02	-6.124521e-02	-6.968014e-02	-7.556765e-02	-8.053289e-02	-8.660586e-02	-9.575378e-02	-1.062563e-01	-1.198489e-01	-1.400733e-01	-1.682421e-01	-2.087049e-01	-2.792366e-01	-4.330189e-01	-8.515736e-01	-1.546649e+00	-1.296886e-01	1.362237e+00	1.334135e+00	1.240778e+00	-3.457917e-02	-1.537840e+00	1.724235e+00	4.707123e+00	1.585078e+00	-6.991895e-01	-2.974254e-01	-3.307162e-01	-7.518465e-02	8.771650e-02	-3.822679e-02	-1.589144e-01	-1.190247e-01	-2.676220e-02	-5.146002e-02	-1.197925e-01	-1.049416e-01	-7.375797e-02	-7.897465e-02	-8.907019e-02	-8.385285e-02	-7.137049e-02	-5.878629e-02	-5.439984e-02	-5.437628e-02	-5.777753e-02	-6.008563e-02	-5.613363e-02	-4.779869e-02	-4.167493e-02	-4.204061e-02	-4.623804e-02	-4.894513e-02	-4.919238e-02	-5.031800e-02	-5.073278e-02	-4.710914e-02	-4.097233e-02	-3.213349e-02	-2.421811e-02	-2.450179e-02	-3.223130e-02	-4.455894e-02	-5.651163e-02	-6.179505e-02	-5.597018e-02	-4.334906e-02	-3.073033e-02	-1.999852e-02	-1.266030e-02	-1.638733e-02	-3.584118e-02	-6.382102e-02	-7.849827e-02	-7.459580e-02	-6.233477e-02	-4.885176e-02	-3.147386e-02	-2.071780e-02	-9.941301e-03	4.206619e-03	1.167242e-02	-4.521720e-05	-2.993557e-02	-6.784304e-02	-1.017243e-01	-1.111050e-01	-7.623037e-02	-2.176202e-02	1.320502e-02	6.438725e-03	-3.306345e-02	-8.902001e-02	-1.069893e-01	-5.371926e-02	1.506298e-03	2.052961e-02	-3.418021e-03	-6.359806e-02	-9.744818e-02	-4.448609e-02	9.998486e-03	-1.453732e-02	-6.630159e-02	-5.157987e-02	1.067551e-02	3.076095e-03	-6.124670e-02	-7.383393e-02	-1.561736e-02	3.567693e-02	4.283207e-02	-7.343181e-03	-7.351532e-02	-7.233817e-02	-1.085662e-02	4.532094e-02	4.837135e-02	-1.414822e-02	-8.532220e-02	-7.611889e-02	-8.351650e-03	4.000009e-02	6.333145e-02	6.701966e-02	2.982612e-02	-4.718038e-02	-9.431178e-02	-6.887191e-02	3.268645e-04	4.834594e-02	6.652189e-02	6.814803e-02	2.125177e-02	-5.651921e-02	-8.394817e-02	-4.229051e-02	2.124247e-02	5.711730e-02	6.215404e-02	3.346189e-02	-2.807260e-02	-6.731861e-02	-4.260065e-02	1.426889e-02	4.685322e-02	4.299307e-02	1.787763e-02	-2.325010e-02	-3.996502e-02	-8.947076e-03	2.660579e-02	2.495728e-02	-2.728588e-03	-2.290608e-02	-1.143889e-02	2.278901e-02	3.330371e-02	-2.004450e-03	-4.016133e-02	-3.281064e-02	1.975381e-02	6.536125e-02	4.715515e-02	-2.973976e-02	-8.744658e-02	-6.564347e-02	3.594216e-02	1.229426e-01	9.455245e-02	-4.307298e-02	-1.447578e-01	-1.099030e-01	5.038045e-02	1.117346e-01	2.322217e-02	7.977554e-02	1.616537e-01	-1.033980e-02	-2.779898e-01	-2.713563e-01	1.076316e-01	3.296962e-01	2.671530e-02	-3.180107e-01	-1.559196e-01	1.370988e-01	6.690016e-02	1.527351e-02	3.946603e-02	-1.285066e-01	-2.609855e-01	-1.662533e-01	-3.498032e-02	
SCALARS Sensitivity_y float 1
LOOKUP_TABLE default
1.470167e-02	-2.888413e-02	-8.382290e-04	-5.327840e-02	5.944070e-03	-4.708098e-02	2.146337e-02	1.144283e-01	1.031947e-01	2.540699e-02	1.017483e-02	1.113961e-02	1.149436e-02	9.756363e-03	1.513401e-03	-7.804666e-03	-4.604682e-04	1.150322e-02	8.475268e-03	9.598240e-03	5.638460e-04	-9.104704e-03	6.938816e-03	-1.610094e-03	7.963203e-03	7.878620e-05	-1.092211e-02	-4.888241e-03	6.644431e-03	7.151268e-03	3.750200e-03	-7.367160e-03	-6.812395e-03	4.701243e-03	7.233331e-03	-3.985448e-03	8.733809e-03	-8.384682e-03	2.550933e-03	1.457455e-02	1.283823e-02	1.183281e-03	-6.826440e-03	1.219817e-02	1.282860e-02	8.068674e-03	2.158470e-03	-2.042505e-03	-6.587484e-03	5.157117e-02	-6.303629e-03	1.635296e-03	8.990540e-03	9.888540e-03	7.647884e-03	4.675394e-03	3.654948e-03	-3.415498e-04	-2.164448e-03	2.546591e-04	4.441310e-03	8.951989e-03	7.515386e-03	6.142982e-03	6.934998e-03	3.219319e-03	1.815223e-03	2.914502e-03	4.935593e-03	9.136422e-03	8.194164e-03	3.044050e-03	5.065176e-03	7.738593e-03	5.146721e-03	3.278980e-03	2.868328e-03	4.190148e-03	8.557291e-03	1.003198e-02	8.213406e-03	8.978514e-03	7.367361e-03	4.588831e-03	6.028338e-03	7.378984e-03	4.797762e-03	1.858282e-03	1.626130e-03	3.413479e-03	7.495676e-03	1.158521e-02	1.197789e-02	1.161250e-02	1.386295e-02	1.312097e-02	1.003666e-02	8.550347e-03	7.867136e-03	6.697587e-03	4.438466e-03	3.188731e-03	4.308420e-03	8.191745e-03	1.452886e-02	1.744392e-02	1.688403e-02	1.584469e-02	1.415872e-02	1.176852e-02	1.126496e-02	1.836668e-02	2.256512e-02	1.893475e-02	1.603207e-02	1.517371e-02	1.563852e-02	1.582064e-02	1.891722e-02	2.575706e-02	2.925351e-02	2.953507e-02	3.057447e-02	3.009157e-02	3.005366e-02	3.176736e-02	3.171111e-02	3.247661e-02	3.553271e-02	4.006444e-02	4.608381e-02	5.390319e-02	6.280262e-02	6.955158e-02	7.451370e-02	8.084107e-02	9.145750e-02	1.055732e-01	1.187992e-01	1.353825e-01	1.610288e-01	1.978529e-01	2.573465e-01	3.896813e-01	6.486751e-01	6.246775e-01	-1.772034e+00	-3.040720e+00	-1.147701e+00	2.015556e-01	-5.981454e-02	-3.126651e-01	-1.961094e-02	-8.300459e-01	-4.543534e-01	3.182177e-01	1.071586e-01	1.391143e-01	1.945409e-02	-7.911948e-02	6.625456e-04	8.957786e-02	7.578241e-02	1.283009e-02	2.260909e-02	7.241949e-02	6.804981e-02	4.566634e-02	4.748232e-02	5.605043e-02	5.525685e-02	4.739699e-02	3.911607e-02	3.599224e-02	3.500123e-02	3.737666e-02	4.088389e-02	4.009692e-02	3.397607e-02	2.941749e-02	3.007085e-02	3.289737e-02	3.438777e-02	3.318227e-02	3.202216e-02	3.221617e-02	2.971342e-02	2.478617e-02	1.973988e-02	1.540658e-02	1.760542e-02	2.543431e-02	3.466694e-02	4.213613e-02	4.328202e-02	3.754750e-02	2.882463e-02	2.040265e-02	1.299646e-02	8.105687e-03	1.327382e-02	2.895053e-02	4.859826e-02	5.882182e-02	5.579763e-02	4.703879e-02	3.850314e-02	2.693603e-02	1.669487e-02	7.307828e-03	-3.305816e-03	-1.113929e-02	-2.161503e-03	2.239618e-02	5.414344e-02	8.609357e-02	9.804597e-02	7.139854e-02	2.586026e-02	-1.206883e-02	-1.295569e-02	2.729146e-02	8.160775e-02	1.009353e-01	5.801846e-02	1.706704e-03	-2.428888e-02	1.329481e-04	6.225991e-02	1.014036e-01	5.045221e-02	-1.180421e-02	1.416239e-02	7.362963e-02	5.488264e-02	-1.255323e-02	1.421142e-03	7.304698e-02	8.770041e-02	2.052683e-02	-4.242151e-02	-4.931869e-02	1.065624e-02	9.341180e-02	9.743969e-02	1.816850e-02	-6.065009e-02	-6.692343e-02	1.646888e-02	1.212229e-01	1.239568e-01	3.054893e-02	-5.254691e-02	-1.022445e-01	-1.146963e-01	-6.340711e-02	6.328404e-02	1.650969e-01	1.483634e-01	3.506035e-02	-7.548028e-02	-1.350835e-01	-1.503269e-01	-8.007309e-02	9.137440e-02	2.044802e-01	1.526520e-01	3.312390e-03	-1.280141e-01	-1.889327e-01	-1.511437e-01	2.336667e-02	2.121518e-01	2.200086e-01	5.771849e-02	-1.277371e-01	-2.197692e-01	-1.952748e-01	-1.074018e-02	2.178007e-01	2.387574e-01	2.585491e-02	-1.868807e-01	-2.196492e-01	-4.448359e-02	2.083047e-01	2.420990e-01	1.577953e-02	-2.083547e-01	-2.321720e-01	-2.708394e-02	2.467467e-01	2.787956e-01	2.810040e-02	-2.290441e-01	-2.876540e-01	-1.103229e-01	2.154979e-01	3.469010e-01	1.179486e-01	-2.047321e-01	-3.148522e-01	-1.543251e-01	1.459710e-01	1.876672e-01	4.016042e-02	1.422707e-01	1.869202e-01	-1.213308e-01	-3.940227e-01	-2.585407e-01	1.750595e-01	2.977950e-01	-6.189770e-02	-2.866999e-01	-9.182750e-02	6.901811e-02	3.134133e-02	-1.114815e-02	-3.105119e-02	-1.126242e-01	-8.703086e-02	-3.984194e-02	8.848008e-03	
SCALARS Sensitivity float 1
LOOKUP_TABLE default
-1.877793e-01	-1.890941e-01	-9.117152e-04	-1.331958e-01	6.157095e-03	-7.364820e-02	1.823308e-02	1.118800e-01	1.037485e-01	2.654172e-02	1.075669e-02	1.152558e-02	1.315945e-02	1.005694e-02	2.260429e-03	-8.578866e-03	-7.824293e-04	1.173775e-02	9.476605e-03	9.775582e-03	1.084703e-03	-9.768861e-03	7.087379e-03	-1.957464e-03	8.631879e-03	4.462045e-04	-1.145564e-02	-5.390237e-03	6.757062e-03	7.286313e-03	3.735928e-03	-7.827949e-03	-7.012719e-03	4.737184e-03	6.990935e-03	-4.379910e-03	8.816057e-03	-8.625549e-03	2.495023e-03	1.460521e-02	1.274863e-02	1.018477e-03	-6.972473e-03	1.226049e-02	1.289315e-02	8.128367e-03	2.183094e-03	-2.055826e-03	-6.657641e-03	-9.282320e-02	-7.409816e-03	2.230802e-03	1.073460e-02	1.070031e-02	8.543586e-03	6.017481e-03	3.458017e-03	-1.608429e-03	-2.567867e-03	6.669476e-04	5.755289e-03	9.934702e-03	8.612232e-03	8.354694e-03	7.368580e-03	2.396235e-03	1.931701e-03	3.543943e-03	6.319908e-03	1.041617e-02	8.692401e-03	4.818570e-03	7.287651e-03	7.844382e-03	4.833627e-03	3.653712e-03	3.445867e-03	5.570782e-03	1.008288e-02	1.173675e-02	1.121663e-02	1.119809e-02	7.560703e-03	5.543017e-03	7.900905e-03	7.781380e-03	4.477394e-03	2.062238e-03	2.316470e-03	5.096021e-03	1.061578e-02	1.469649e-02	1.514018e-02	1.647798e-02	1.821717e-02	1.540309e-02	1.172101e-02	1.044700e-02	9.225532e-03	7.114624e-03	5.014521e-03	4.438457e-03	6.473184e-03	1.229935e-02	2.004903e-02	2.328229e-02	2.341138e-02	2.212107e-02	1.835947e-02	1.381452e-02	1.486112e-02	2.526000e-02	2.996771e-02	2.574473e-02	2.233481e-02	2.068912e-02	2.019380e-02	2.120529e-02	2.740933e-02	3.638960e-02	4.114289e-02	4.294609e-02	4.340491e-02	4.183369e-02	4.159580e-02	4.240660e-02	4.276278e-02	4.567012e-02	5.121448e-02	5.899821e-02	6.910263e-02	8.155882e-02	9.379664e-02	1.027018e-01	1.097162e-01	1.184730e-01	1.324020e-01	1.496844e-01	1.686034e-01	1.946803e-01	2.327255e-01	2.873741e-01	3.795753e-01	5.824064e-01	1.068759e+00	1.582255e+00	-1.146574e+00	-3.306977e+00	-1.394538e+00	4.091838e-01	-6.901197e-02	-1.427018e+00	1.671292e+00	4.779126e+00	1.623087e+00	-7.663444e-01	-3.108312e-01	-3.553577e-01	-7.441553e-02	1.164710e-01	-3.221036e-02	-1.818516e-01	-1.410576e-01	-2.934242e-02	-5.515983e-02	-1.396898e-01	-1.250183e-01	-8.663920e-02	-9.196219e-02	-1.051473e-01	-1.004062e-01	-8.566875e-02	-7.060696e-02	-6.522305e-02	-6.464556e-02	-6.879380e-02	-7.267583e-02	-6.896443e-02	-5.863008e-02	-5.100388e-02	-5.167510e-02	-5.673604e-02	-5.981208e-02	-5.933681e-02	-5.961324e-02	-6.006535e-02	-5.566084e-02	-4.781087e-02	-3.766133e-02	-2.867978e-02	-3.016911e-02	-4.100192e-02	-5.640282e-02	-7.047252e-02	-7.544402e-02	-6.737719e-02	-5.203394e-02	-3.686510e-02	-2.382212e-02	-1.500404e-02	-2.106958e-02	-4.604226e-02	-8.021614e-02	-9.809171e-02	-9.315524e-02	-7.809045e-02	-6.218368e-02	-4.135252e-02	-2.659958e-02	-1.233343e-02	5.350073e-03	1.608318e-02	1.346404e-03	-3.731982e-02	-8.675242e-02	-1.332649e-01	-1.481540e-01	-1.043156e-01	-3.334668e-02	1.788462e-02	1.343595e-02	-4.281803e-02	-1.207655e-01	-1.470736e-01	-7.881808e-02	-6.807131e-05	3.163472e-02	-2.523425e-03	-8.899149e-02	-1.406187e-01	-6.715316e-02	1.543556e-02	-2.027673e-02	-9.906803e-02	-7.531507e-02	1.646963e-02	9.699450e-04	-9.531021e-02	-1.146267e-01	-2.574531e-02	5.542930e-02	6.527869e-02	-1.291754e-02	-1.188674e-01	-1.213255e-01	-2.101873e-02	7.571274e-02	8.257352e-02	-2.159448e-02	-1.482300e-01	-1.452479e-01	-2.992221e-02	6.589958e-02	1.202646e-01	1.328350e-01	6.987404e-02	-7.816685e-02	-1.901061e-01	-1.631506e-01	-3.058328e-02	8.930575e-02	1.505746e-01	1.650523e-01	8.204499e-02	-1.058771e-01	-2.210391e-01	-1.572773e-01	4.804073e-03	1.398830e-01	1.988928e-01	1.544585e-01	-2.975775e-02	-2.222459e-01	-2.235799e-01	-5.228056e-02	1.350266e-01	2.239341e-01	1.957730e-01	8.012571e-03	-2.207720e-01	-2.383034e-01	-2.300329e-02	1.881654e-01	2.195060e-01	4.476873e-02	-2.079109e-01	-2.425692e-01	-1.687327e-02	2.080048e-01	2.352493e-01	3.183720e-02	-2.465376e-01	-2.857411e-01	-3.587321e-02	2.301743e-01	3.004889e-01	1.250667e-01	-2.154115e-01	-3.680187e-01	-1.423155e-01	2.066167e-01	3.465014e-01	1.873472e-01	-1.522217e-01	-2.183094e-01	-4.639067e-02	-1.629265e-01	-2.445013e-01	1.064772e-01	4.819142e-01	3.734488e-01	-2.004357e-01	-4.434777e-01	2.445180e-02	4.280215e-01	1.802792e-01	-1.525419e-01	-7.346471e-02	-8.366868e-03	-2.306306e-02	1.601316e-01	2.743166e-01	1.691497e-01	3.549187e-02	