# vtk DataFile Version 3.0
vtk output
ASCII
DATASET UNSTRUCTURED_GRID
POINTS 324 float
3.085804e-01	-3.230213e-03	0.0	3.089526e-01	-2.604522e-03	0.0	3.492715e-01	5.209667e-03	0.0	3.095147e-01	-1.961682e-03	0.0	3.476966e-01	4.400654e-03	0.0	3.101596e-01	-1.396191e-03	0.0	3.109480e-01	-1.059579e-03	0.0	3.117682e-01	-7.994838e-04	0.0	3.126276e-01	-7.984141e-04	0.0	3.134890e-01	-8.638602e-04	0.0	3.143517e-01	-9.256926e-04	0.0	3.152157e-01	-9.854075e-04	0.0	3.469004e-01	4.013196e-03	0.0	3.160808e-01	-1.043356e-03	0.0	3.461063e-01	3.621450e-03	0.0	3.453074e-01	3.239690e-03	0.0	3.444980e-01	2.880663e-03	0.0	3.169474e-01	-1.093644e-03	0.0	3.436813e-01	2.538755e-03	0.0	3.178151e-01	-1.141949e-03	0.0	3.428659e-01	2.193951e-03	0.0	3.420457e-01	1.861087e-03	0.0	3.186839e-01	-1.187218e-03	0.0	3.412151e-01	1.555801e-03	0.0	3.403773e-01	1.271143e-03	0.0	3.395409e-01	9.828459e-04	0.0	3.387002e-01	7.085158e-04	0.0	3.378498e-01	4.667364e-04	0.0	3.195542e-01	-1.220909e-03	0.0	3.369925e-01	2.518513e-04	0.0	3.361364e-01	3.350940e-05	0.0	3.352778e-01	-1.730286e-04	0.0	3.344121e-01	-3.452022e-04	0.0	3.335416e-01	-4.895788e-04	0.0	3.326712e-01	-6.311072e-04	0.0	3.318010e-01	-7.718520e-04	0.0	3.204255e-01	-1.250547e-03	0.0	3.309276e-01	-8.860647e-04	0.0	3.300515e-01	-9.725823e-04	0.0	3.291748e-01	-1.047109e-03	0.0	3.282993e-01	-1.128879e-03	0.0	3.274245e-01	-1.210247e-03	0.0	3.265490e-01	-1.276510e-03	0.0	3.212979e-01	-1.271940e-03	0.0	3.221712e-01	-1.293108e-03	0.0	3.230453e-01	-1.314082e-03	0.0	3.239203e-01	-1.328909e-03	0.0	3.247961e-01	-1.331615e-03	0.0	3.256726e-01	-1.316176e-03	0.0	3.083361e-01	-3.913094e-03	0.0	3.484891e-01	4.795396e-03	0.0	3.500443e-01	5.641354e-03	0.0	3.505637e-01	5.940783e-03	0.0	3.510818e-01	6.242514e-03	0.0	3.516005e-01	6.543308e-03	0.0	3.521204e-01	6.842176e-03	0.0	3.526394e-01	7.142492e-03	0.0	3.531554e-01	7.448047e-03	0.0	3.536673e-01	7.760462e-03	0.0	3.541757e-01	8.078652e-03	0.0	3.546812e-01	8.401356e-03	0.0	3.551850e-01	8.726799e-03	0.0	3.556884e-01	9.052778e-03	0.0	3.561926e-01	9.377406e-03	0.0	3.566970e-01	9.701935e-03	0.0	3.571994e-01	1.002937e-02	0.0	3.576988e-01	1.036143e-02	0.0	3.581956e-01	1.069725e-02	0.0	3.586906e-01	1.103562e-02	0.0	3.591848e-01	1.137519e-02	0.0	3.596791e-01	1.171455e-02	0.0	3.601738e-01	1.205311e-02	0.0	3.606683e-01	1.239196e-02	0.0	3.611617e-01	1.273236e-02	0.0	3.616532e-01	1.307533e-02	0.0	3.621427e-01	1.342115e-02	0.0	3.626299e-01	1.376992e-02	0.0	3.631150e-01	1.412154e-02	0.0	3.635988e-01	1.447491e-02	0.0	3.640822e-01	1.482856e-02	0.0	3.645663e-01	1.518121e-02	0.0	3.650508e-01	1.553303e-02	0.0	3.655351e-01	1.588498e-02	0.0	3.660186e-01	1.623800e-02	0.0	3.665004e-01	1.659304e-02	0.0	3.669800e-01	1.695083e-02	0.0	3.674573e-01	1.731157e-02	0.0	3.679320e-01	1.767539e-02	0.0	3.684042e-01	1.804240e-02	0.0	3.688736e-01	1.841269e-02	0.0	3.693407e-01	1.878566e-02	0.0	3.698063e-01	1.916020e-02	0.0	3.702714e-01	1.953521e-02	0.0	3.707369e-01	1.990957e-02	0.0	3.712032e-01	2.028254e-02	0.0	3.716699e-01	2.065485e-02	0.0	3.721360e-01	2.102757e-02	0.0	3.726007e-01	2.140178e-02	0.0	3.730631e-01	2.177851e-02	0.0	3.735228e-01	2.215833e-02	0.0	3.739796e-01	2.254132e-02	0.0	3.744334e-01	2.292759e-02	0.0	3.748840e-01	2.331720e-02	0.0	3.753316e-01	2.371001e-02	0.0	3.757771e-01	2.410498e-02	0.0	3.762213e-01	2.450094e-02	0.0	3.766655e-01	2.489671e-02	0.0	3.771105e-01	2.529122e-02	0.0	3.775554e-01	2.568542e-02	0.0	3.779981e-01	2.608187e-02	0.0	3.784375e-01	2.648149e-02	0.0	3.788740e-01	2.688399e-02	0.0	3.793093e-01	2.728748e-02	0.0	3.797452e-01	2.768994e-02	0.0	3.801809e-01	2.809223e-02	0.0	3.806148e-01	2.849608e-02	0.0	3.810456e-01	2.890280e-02	0.0	3.814733e-01	2.931248e-02	0.0	3.818978e-01	2.972501e-02	0.0	3.823199e-01	3.013972e-02	0.0	3.827409e-01	3.055504e-02	0.0	3.831625e-01	3.096943e-02	0.0	3.835847e-01	3.138273e-02	0.0	3.840066e-01	3.179598e-02	0.0	3.844271e-01	3.221022e-02	0.0	3.848451e-01	3.262651e-02	0.0	3.852599e-01	3.304552e-02	0.0	3.856716e-01	3.346721e-02	0.0	3.860802e-01	3.389150e-02	0.0	3.864856e-01	3.431827e-02	0.0	3.868883e-01	3.474732e-02	0.0	3.872888e-01	3.517786e-02	0.0	3.876882e-01	3.560898e-02	0.0	3.880875e-01	3.603977e-02	0.0	3.884875e-01	3.646937e-02	0.0	3.888881e-01	3.689801e-02	0.0	3.892881e-01	3.732663e-02	0.0	3.896867e-01	3.775620e-02	0.0	3.900826e-01	3.818768e-02	0.0	3.904754e-01	3.862152e-02	0.0	3.908652e-01	3.905758e-02	0.0	3.912521e-01	3.949567e-02	0.0	3.916363e-01	3.993562e-02	0.0	3.920181e-01	4.037717e-02	0.0	3.923980e-01	4.081987e-02	0.0	3.927765e-01	4.126324e-02	0.0	3.931543e-01	4.170701e-02	0.0	3.935849e-01	4.208953e-02	0.0	3.941278e-01	4.229537e-02	0.0	3.947040e-01	4.232142e-02	0.0	3.952414e-01	4.210361e-02	0.0	3.957366e-01	4.165683e-02	0.0	3.960041e-01	4.105694e-02	0.0	3.960432e-01	4.038936e-02	0.0	3.957582e-01	3.978330e-02	0.0	3.954517e-01	3.918439e-02	0.0	3.951172e-01	3.860033e-02	0.0	3.947718e-01	3.802233e-02	0.0	3.944288e-01	3.744266e-02	0.0	3.940753e-01	3.686905e-02	0.0	3.937058e-01	3.630534e-02	0.0	3.933294e-01	3.574593e-02	0.0	3.929527e-01	3.518647e-02	0.0	3.925764e-01	3.462648e-02	0.0	3.921933e-01	3.407094e-02	0.0	3.918060e-01	3.351797e-02	0.0	3.914216e-01	3.296284e-02	0.0	3.910376e-01	3.240710e-02	0.0	3.906531e-01	3.185160e-02	0.0	3.902689e-01	3.129564e-02	0.0	3.898861e-01	3.073847e-02	0.0	3.895048e-01	3.018008e-02	0.0	3.891242e-01	2.962103e-02	0.0	3.887436e-01	2.906182e-02	0.0	3.883628e-01	2.850254e-02	0.0	3.879818e-01	2.794325e-02	0.0	3.876008e-01	2.738379e-02	0.0	3.872202e-01	2.682392e-02	0.0	3.868400e-01	2.626362e-02	0.0	3.864595e-01	2.570334e-02	0.0	3.860783e-01	2.514349e-02	0.0	3.856963e-01	2.458394e-02	0.0	3.853143e-01	2.402435e-02	0.0	3.849324e-01	2.346457e-02	0.0	3.845505e-01	2.290465e-02	0.0	3.841687e-01	2.234461e-02	0.0	3.837868e-01	2.178450e-02	0.0	3.834044e-01	2.122460e-02	0.0	3.830209e-01	2.066543e-02	0.0	3.826354e-01	2.010755e-02	0.0	3.822472e-01	1.955150e-02	0.0	3.818563e-01	1.899729e-02	0.0	3.814637e-01	1.844420e-02	0.0	3.810706e-01	1.789143e-02	0.0	3.806781e-01	1.733822e-02	0.0	3.802864e-01	1.678436e-02	0.0	3.798946e-01	1.623061e-02	0.0	3.795014e-01	1.567777e-02	0.0	3.791060e-01	1.512656e-02	0.0	3.787075e-01	1.457756e-02	0.0	3.783051e-01	1.403133e-02	0.0	3.778993e-01	1.348775e-02	0.0	3.774917e-01	1.294545e-02	0.0	3.770845e-01	1.240292e-02	0.0	3.766786e-01	1.185945e-02	0.0	3.762731e-01	1.131572e-02	0.0	3.758669e-01	1.077254e-02	0.0	3.754589e-01	1.023076e-02	0.0	3.750481e-01	9.691202e-03	0.0	3.746336e-01	9.154567e-03	0.0	3.742145e-01	8.621531e-03	0.0	3.737901e-01	8.092786e-03	0.0	3.733598e-01	7.569026e-03	0.0	3.729239e-01	7.049953e-03	0.0	3.724845e-01	6.533896e-03	0.0	3.720439e-01	6.019046e-03	0.0	3.716041e-01	5.503582e-03	0.0	3.711665e-01	4.986414e-03	0.0	3.707284e-01	4.469844e-03	0.0	3.702861e-01	3.956989e-03	0.0	3.698379e-01	3.449392e-03	0.0	3.693834e-01	2.947656e-03	0.0	3.689248e-01	2.449865e-03	0.0	3.684664e-01	1.951943e-03	0.0	3.680095e-01	1.452949e-03	0.0	3.675499e-01	9.565835e-04	0.0	3.670845e-01	4.659658e-04	0.0	3.666122e-01	-1.784669e-05	0.0	3.661336e-01	-4.952477e-04	0.0	3.656532e-01	-9.705890e-04	0.0	3.651745e-01	-1.447378e-03	0.0	3.646928e-01	-1.920808e-03	0.0	3.642040e-01	-2.386786e-03	0.0	3.637098e-01	-2.846603e-03	0.0	3.632161e-01	-3.306775e-03	0.0	3.627206e-01	-3.764582e-03	0.0	3.622181e-01	-4.214493e-03	0.0	3.617094e-01	-4.657001e-03	0.0	3.612008e-01	-5.099338e-03	0.0	3.606927e-01	-5.541840e-03	0.0	3.601798e-01	-5.978494e-03	0.0	3.596596e-01	-6.406048e-03	0.0	3.591319e-01	-6.823864e-03	0.0	3.585997e-01	-7.235503e-03	0.0	3.580685e-01	-7.647979e-03	0.0	3.575381e-01	-8.061233e-03	0.0	3.570034e-01	-8.468280e-03	0.0	3.564613e-01	-8.865139e-03	0.0	3.558462e-01	-9.296533e-03	0.0	3.552260e-01	-9.720815e-03	0.0	3.546077e-01	-1.014782e-02	0.0	3.539899e-01	-1.057572e-02	0.0	3.533677e-01	-1.099729e-02	0.0	3.527373e-01	-1.140643e-02	0.0	3.520973e-01	-1.180049e-02	0.0	3.514471e-01	-1.217751e-02	0.0	3.507891e-01	-1.254059e-02	0.0	3.501287e-01	-1.289942e-02	0.0	3.494709e-01	-1.326294e-02	0.0	3.488141e-01	-1.362821e-02	0.0	3.481530e-01	-1.398570e-02	0.0	3.474837e-01	-1.432725e-02	0.0	3.468049e-01	-1.464935e-02	0.0	3.461162e-01	-1.494947e-02	0.0	3.454202e-01	-1.523238e-02	0.0	3.447227e-01	-1.551103e-02	0.0	3.440278e-01	-1.579619e-02	0.0	3.433332e-01	-1.608136e-02	0.0	3.426333e-01	-1.635326e-02	0.0	3.419253e-01	-1.660284e-02	0.0	3.412089e-01	-1.682658e-02	0.0	3.404850e-01	-1.702427e-02	0.0	3.397580e-01	-1.720959e-02	0.0	3.390323e-01	-1.739950e-02	0.0	3.383080e-01	-1.759389e-02	0.0	3.375808e-01	-1.777635e-02	0.0	3.368479e-01	-1.793316e-02	0.0	3.361094e-01	-1.805972e-02	0.0	3.353663e-01	-1.815450e-02	0.0	3.346213e-01	-1.823091e-02	0.0	3.338768e-01	-1.830991e-02	0.0	3.331331e-01	-1.839468e-02	0.0	3.323881e-01	-1.846271e-02	0.0	3.316411e-01	-1.849889e-02	0.0	3.308935e-01	-1.850123e-02	0.0	3.301464e-01	-1.848006e-02	0.0	3.293995e-01	-1.846009e-02	0.0	3.286529e-01	-1.844482e-02	0.0	3.279072e-01	-1.841066e-02	0.0	3.271642e-01	-1.834286e-02	0.0	3.264256e-01	-1.823925e-02	0.0	3.256910e-01	-1.811200e-02	0.0	3.249563e-01	-1.798743e-02	0.0	3.242212e-01	-1.786757e-02	0.0	3.234899e-01	-1.772845e-02	0.0	3.227665e-01	-1.755449e-02	0.0	3.220536e-01	-1.734303e-02	0.0	3.213504e-01	-1.710210e-02	0.0	3.206490e-01	-1.685733e-02	0.0	3.199448e-01	-1.662183e-02	0.0	3.192454e-01	-1.637375e-02	0.0	3.185593e-01	-1.609226e-02	0.0	3.178902e-01	-1.577352e-02	0.0	3.172381e-01	-1.542217e-02	0.0	3.165914e-01	-1.506178e-02	0.0	3.159437e-01	-1.470419e-02	0.0	3.153142e-01	-1.431650e-02	0.0	3.146902e-01	-1.392078e-02	0.0	3.140682e-01	-1.352281e-02	0.0	3.134652e-01	-1.309771e-02	0.0	3.128945e-01	-1.263095e-02	0.0	3.123623e-01	-1.212149e-02	0.0	3.118408e-01	-1.160155e-02	0.0	3.113118e-01	-1.109011e-02	0.0	3.108081e-01	-1.055470e-02	0.0	3.103577e-01	-9.974589e-03	0.0	3.099574e-01	-9.359202e-03	0.0	3.095563e-01	-8.745006e-03	0.0	3.091991e-01	-8.105295e-03	0.0	3.088775e-01	-7.447271e-03	0.0	3.085931e-01	-6.773398e-03	0.0	3.083583e-01	-6.080923e-03	0.0	3.082394e-01	-5.362770e-03	0.0	3.082284e-01	-4.634417e-03	0.0	
CELLS 324	972
2	51	52	2	52	53	2	53	54	2	54	55	2	55	56	2	56	57	2	57	58	2	58	59	2	59	60	2	60	61	2	61	62	2	62	63	2	63	64	2	64	65	2	65	66	2	66	67	2	67	68	2	68	69	2	69	70	2	70	71	2	71	72	2	72	73	2	73	74	2	74	75	2	75	76	2	76	77	2	77	78	2	78	79	2	79	80	2	80	81	2	81	82	2	82	83	2	83	84	2	84	85	2	85	86	2	86	87	2	87	88	2	88	89	2	89	90	2	90	91	2	91	92	2	92	93	2	93	94	2	94	95	2	95	96	2	96	97	2	97	98	2	98	99	2	99	100	2	100	101	2	101	102	2	102	103	2	103	104	2	104	105	2	105	106	2	106	107	2	107	108	2	108	109	2	109	110	2	110	111	2	111	112	2	112	113	2	113	114	2	114	115	2	115	116	2	116	117	2	117	118	2	118	119	2	119	120	2	120	121	2	121	122	2	122	123	2	123	124	2	124	125	2	125	126	2	126	127	2	127	128	2	128	129	2	129	130	2	130	131	2	131	132	2	132	133	2	133	134	2	134	135	2	135	136	2	136	137	2	137	138	2	138	139	2	139	140	2	140	141	2	141	142	2	142	143	2	143	144	2	144	145	2	145	146	2	146	147	2	147	148	2	148	149	2	149	150	2	150	151	2	151	152	2	152	153	2	153	154	2	154	155	2	155	156	2	156	157	2	157	158	2	158	159	2	159	160	2	160	161	2	161	162	2	162	163	2	163	164	2	164	165	2	165	166	2	166	167	2	167	168	2	168	169	2	169	170	2	170	171	2	171	172	2	172	173	2	173	174	2	174	175	2	175	176	2	176	177	2	177	178	2	178	179	2	179	180	2	180	181	2	181	182	2	182	183	2	183	184	2	184	185	2	185	186	2	186	187	2	187	188	2	188	189	2	189	190	2	190	191	2	191	192	2	192	193	2	193	194	2	194	195	2	195	196	2	196	197	2	197	198	2	198	199	2	199	200	2	200	201	2	201	202	2	202	203	2	203	204	2	204	205	2	205	206	2	206	207	2	207	208	2	208	209	2	209	210	2	210	211	2	211	212	2	212	213	2	213	214	2	214	215	2	215	216	2	216	217	2	217	218	2	218	219	2	219	220	2	220	221	2	221	222	2	222	223	2	223	224	2	224	225	2	225	226	2	226	227	2	227	228	2	228	229	2	229	230	2	230	231	2	231	232	2	232	233	2	233	234	2	234	235	2	235	236	2	236	237	2	237	238	2	238	239	2	239	240	2	240	241	2	241	242	2	242	243	2	243	244	2	244	245	2	245	246	2	246	247	2	247	248	2	248	249	2	249	250	2	250	251	2	251	252	2	252	253	2	253	254	2	254	255	2	255	256	2	256	257	2	257	258	2	258	259	2	259	260	2	260	261	2	261	262	2	262	263	2	263	264	2	264	265	2	265	266	2	266	267	2	267	268	2	268	269	2	269	270	2	270	271	2	271	272	2	272	273	2	273	274	2	274	275	2	275	276	2	276	277	2	277	278	2	278	279	2	279	280	2	280	281	2	281	282	2	282	283	2	283	284	2	284	285	2	285	286	2	286	287	2	287	288	2	288	289	2	289	290	2	290	291	2	291	292	2	292	293	2	293	294	2	294	295	2	295	296	2	296	297	2	297	298	2	298	299	2	299	300	2	300	301	2	301	302	2	302	303	2	303	304	2	304	305	2	305	306	2	306	307	2	307	308	2	308	309	2	309	310	2	310	311	2	311	312	2	312	313	2	313	314	2	314	315	2	315	316	2	316	317	2	317	318	2	318	319	2	319	320	2	320	321	2	321	322	2	322	323	2	323	49	2	49	0	2	0	1	2	1	3	2	3	5	2	5	6	2	6	7	2	7	8	2	8	9	2	9	10	2	10	11	2	11	13	2	13	17	2	17	19	2	19	22	2	22	28	2	28	36	2	36	43	2	43	44	2	44	45	2	45	46	2	46	47	2	47	48	2	48	42	2	42	41	2	41	40	2	40	39	2	39	38	2	38	37	2	37	35	2	35	34	2	34	33	2	33	32	2	32	31	2	31	30	2	30	29	2	29	27	2	27	26	2	26	25	2	25	24	2	24	23	2	23	21	2	21	20	2	20	18	2	18	16	2	16	15	2	15	14	2	14	12	2	12	4	2	4	50	2	50	2	2	2	51	
CELL_TYPES 324
3	3	3	3	3	3	3	3	3	3	3	3	3	3	3	3	3	3	3	3	3	3	3	3	3	3	3	3	3	3	3	3	3	3	3	3	3	3	3	3	3	3	3	3	3	3	3	3	3	3	3	3	3	3	3	3	3	3	3	3	3	3	3	3	3	3	3	3	3	3	3	3	3	3	3	3	3	3	3	3	3	3	3	3	3	3	3	3	3	3	3	3	3	3	3	3	3	3	3	3	3	3	3	3	3	3	3	3	3	3	3	3	3	3	3	3	3	3	3	3	3	3	3	3	3	3	3	3	3	3	3	3	3	3	3	3	3	3	3	3	3	3	3	3	3	3	3	3	3	3	3	3	3	3	3	3	3	3	3	3	3	3	3	3	3	3	3	3	3	3	3	3	3	3	3	3	3	3	3	3	3	3	3	3	3	3	3	3	3	3	3	3	3	3	3	3	3	3	3	3	3	3	3	3	3	3	3	3	3	3	3	3	3	3	3	3	3	3	3	3	3	3	3	3	3	3	3	3	3	3	3	3	3	3	3	3	3	3	3	3	3	3	3	3	3	3	3	3	3	3	3	3	3	3	3	3	3	3	3	3	3	3	3	3	3	3	3	3	3	3	3	3	3	3	3	3	3	3	3	3	3	3	3	3	3	3	3	3	3	3	3	3	3	3	3	3	3	3	3	3	3	3	3	3	3	3	3	3	3	3	3	3	3	3	3	3	3	3	3	3	3	3	3	3	
POINT_DATA 324

SCALARS Adjoint_Density float 1
LOOKUP_TABLE default
-3.427707e-02	-3.835354e-02	-4.612801e-02	-4.211835e-02	-4.629337e-02	-4.445011e-02	-4.592715e-02	-4.581157e-02	-4.625456e-02	-4.636589e-02	-4.640454e-02	-4.652823e-02	-4.631179e-02	-4.656518e-02	-4.633712e-02	-4.640942e-02	-4.649468e-02	-4.660455e-02	-4.653848e-02	-4.665417e-02	-4.657077e-02	-4.664121e-02	-4.669436e-02	-4.672638e-02	-4.677200e-02	-4.680172e-02	-4.686135e-02	-4.693741e-02	-4.674779e-02	-4.698276e-02	-4.700363e-02	-4.703554e-02	-4.708163e-02	-4.711321e-02	-4.711936e-02	-4.711546e-02	-4.679860e-02	-4.711704e-02	-4.713027e-02	-4.712203e-02	-4.709288e-02	-4.706208e-02	-4.703340e-02	-4.685198e-02	-4.690246e-02	-4.693872e-02	-4.696942e-02	-4.698694e-02	-4.700803e-02	-3.350779e-02	-4.622434e-02	-3.871181e-02	-3.134504e-02	-3.134876e-02	-3.136630e-02	-3.137780e-02	-3.136661e-02	-3.133785e-02	-3.130519e-02	-3.127835e-02	-3.126333e-02	-3.126817e-02	-3.132046e-02	-3.132549e-02	-3.128972e-02	-3.132078e-02	-3.129505e-02	-3.127393e-02	-3.126342e-02	-3.126561e-02	-3.127885e-02	-3.129340e-02	-3.129689e-02	-3.128764e-02	-3.127121e-02	-3.125084e-02	-3.122878e-02	-3.121020e-02	-3.120190e-02	-3.120735e-02	-3.122131e-02	-3.123222e-02	-3.123344e-02	-3.122302e-02	-3.120068e-02	-3.117265e-02	-3.113987e-02	-3.110431e-02	-3.106627e-02	-3.102884e-02	-3.099792e-02	-3.097848e-02	-3.097338e-02	-3.098127e-02	-3.099266e-02	-3.099785e-02	-3.099192e-02	-3.097256e-02	-3.094093e-02	-3.090378e-02	-3.086240e-02	-3.081836e-02	-3.077306e-02	-3.073187e-02	-3.070180e-02	-3.068756e-02	-3.068999e-02	-3.069775e-02	-3.069250e-02	-3.066682e-02	-3.063241e-02	-3.060544e-02	-3.059928e-02	-3.060841e-02	-3.061122e-02	-3.059680e-02	-3.057056e-02	-3.053954e-02	-3.051141e-02	-3.049550e-02	-3.050066e-02	-3.052517e-02	-3.055604e-02	-3.058116e-02	-3.059567e-02	-3.059982e-02	-3.059748e-02	-3.059500e-02	-3.059520e-02	-3.059999e-02	-3.061385e-02	-3.064318e-02	-3.069311e-02	-3.076646e-02	-3.085998e-02	-3.096788e-02	-3.107880e-02	-3.118985e-02	-3.129827e-02	-3.141244e-02	-3.153792e-02	-3.167458e-02	-3.181199e-02	-3.191947e-02	-3.191251e-02	-3.156825e-02	-3.018390e-02	-2.873112e-02	-3.136363e-02	-3.180021e-02	-3.178191e-02	-2.937231e-02	-2.580160e-02	-2.340193e-02	-2.236463e-02	-2.280873e-02	-2.287836e-02	-2.330162e-02	-2.370316e-02	-2.402021e-02	-2.439363e-02	-2.476202e-02	-2.509273e-02	-2.540123e-02	-2.570334e-02	-2.597287e-02	-2.620156e-02	-2.640694e-02	-2.659227e-02	-2.675317e-02	-2.689018e-02	-2.700696e-02	-2.709032e-02	-2.718889e-02	-2.728506e-02	-2.737331e-02	-2.745179e-02	-2.752079e-02	-2.758375e-02	-2.764273e-02	-2.769923e-02	-2.775123e-02	-2.779782e-02	-2.783931e-02	-2.787715e-02	-2.790652e-02	-2.793184e-02	-2.796602e-02	-2.799132e-02	-2.801719e-02	-2.803589e-02	-2.806090e-02	-2.808809e-02	-2.811052e-02	-2.812893e-02	-2.814692e-02	-2.815252e-02	-2.815813e-02	-2.816837e-02	-2.818510e-02	-2.819712e-02	-2.822197e-02	-2.824287e-02	-2.825154e-02	-2.824975e-02	-2.824779e-02	-2.823360e-02	-2.822216e-02	-2.823901e-02	-2.824716e-02	-2.826304e-02	-2.829457e-02	-2.833064e-02	-2.838653e-02	-2.844583e-02	-2.849209e-02	-2.851969e-02	-2.853848e-02	-2.854804e-02	-2.857504e-02	-2.862228e-02	-2.866810e-02	-2.872247e-02	-2.876473e-02	-2.877322e-02	-2.881773e-02	-2.888948e-02	-2.897063e-02	-2.905649e-02	-2.911215e-02	-2.915479e-02	-2.921186e-02	-2.927935e-02	-2.934711e-02	-2.939926e-02	-2.945288e-02	-2.952456e-02	-2.959503e-02	-2.963546e-02	-2.966033e-02	-2.971517e-02	-2.979054e-02	-2.989018e-02	-2.995766e-02	-2.999174e-02	-3.001392e-02	-3.007086e-02	-3.191734e-02	-3.379868e-02	-3.387389e-02	-3.389610e-02	-3.392286e-02	-3.401477e-02	-3.407753e-02	-3.420593e-02	-3.434554e-02	-3.447079e-02	-3.452146e-02	-3.452288e-02	-3.453241e-02	-3.462052e-02	-3.472587e-02	-3.481947e-02	-3.497798e-02	-3.509610e-02	-3.512714e-02	-3.513022e-02	-3.514796e-02	-3.521319e-02	-3.529442e-02	-3.542515e-02	-3.554722e-02	-3.558830e-02	-3.559009e-02	-3.559585e-02	-3.561711e-02	-3.570744e-02	-3.576738e-02	-3.586042e-02	-3.587582e-02	-3.588005e-02	-3.588475e-02	-3.589873e-02	-3.590954e-02	-3.594479e-02	-3.595611e-02	-3.595971e-02	-3.594916e-02	-3.592844e-02	-3.588369e-02	-3.586197e-02	-3.583417e-02	-3.583644e-02	-3.579393e-02	-3.573530e-02	-3.563291e-02	-3.556752e-02	-3.546369e-02	-3.544858e-02	-3.544946e-02	-3.541092e-02	-3.533557e-02	-3.514429e-02	-3.503723e-02	-3.500157e-02	-3.494065e-02	-3.481166e-02	-3.485367e-02	-3.520784e-02	-3.521317e-02	-3.440231e-02	-3.421293e-02	-3.416583e-02	-3.483645e-02	-3.481547e-02	-3.380010e-02	-3.364679e-02	-3.358491e-02	-3.343555e-02	-3.326488e-02	-3.376392e-02	-3.352530e-02	-3.277698e-02	-3.297647e-02	
SCALARS Adjoint_X-Momentum float 1
LOOKUP_TABLE default
-4.144079e-06	-5.280389e-06	-5.065860e-06	-5.811174e-06	-4.775137e-06	-5.300745e-06	-3.876000e-06	-1.800200e-06	4.023027e-07	8.374945e-07	8.041926e-07	7.805032e-07	-4.762026e-06	7.145589e-07	-4.734736e-06	-4.573765e-06	-4.371776e-06	6.490057e-07	-4.300052e-06	6.141425e-07	-4.253633e-06	-4.040661e-06	5.172002e-07	-3.773476e-06	-3.679648e-06	-3.621729e-06	-3.349488e-06	-2.992800e-06	4.107849e-07	-2.851536e-06	-2.801329e-06	-2.511845e-06	-2.115030e-06	-1.919500e-06	-1.898485e-06	-1.718283e-06	3.274609e-07	-1.359196e-06	-1.096623e-06	-1.068895e-06	-1.116094e-06	-1.009664e-06	-7.288558e-07	2.692371e-07	2.660324e-07	2.244679e-07	1.027110e-07	-1.003087e-07	-3.861740e-07	-2.885682e-06	-4.899595e-06	-4.339322e-06	-3.548998e-06	-3.556582e-06	-3.547522e-06	-3.542783e-06	-3.572519e-06	-3.621448e-06	-3.670705e-06	-3.710162e-06	-3.738640e-06	-3.754059e-06	-3.742880e-06	-3.737531e-06	-3.763601e-06	-3.779813e-06	-3.809812e-06	-3.831448e-06	-3.844862e-06	-3.850183e-06	-3.850142e-06	-3.847411e-06	-3.853210e-06	-3.870075e-06	-3.888277e-06	-3.906208e-06	-3.923510e-06	-3.937156e-06	-3.944133e-06	-3.944764e-06	-3.938450e-06	-3.937562e-06	-3.942038e-06	-3.950998e-06	-3.964161e-06	-3.980942e-06	-3.996242e-06	-4.011038e-06	-4.025505e-06	-4.038235e-06	-4.047015e-06	-4.051508e-06	-4.052994e-06	-4.047580e-06	-4.044445e-06	-4.045452e-06	-4.050532e-06	-4.058397e-06	-4.069835e-06	-4.081861e-06	-4.092174e-06	-4.101575e-06	-4.110016e-06	-4.116245e-06	-4.119608e-06	-4.121004e-06	-4.117476e-06	-4.115231e-06	-4.117355e-06	-4.125744e-06	-4.132098e-06	-4.135361e-06	-4.135094e-06	-4.131956e-06	-4.132685e-06	-4.135461e-06	-4.139584e-06	-4.141254e-06	-4.141594e-06	-4.140725e-06	-4.139661e-06	-4.136950e-06	-4.136339e-06	-4.136335e-06	-4.135915e-06	-4.135646e-06	-4.132848e-06	-4.128173e-06	-4.122032e-06	-4.114614e-06	-4.106266e-06	-4.097923e-06	-4.090137e-06	-4.082855e-06	-4.074743e-06	-4.065111e-06	-4.051460e-06	-4.033619e-06	-4.007439e-06	-3.971317e-06	-3.921923e-06	-3.851783e-06	-3.745120e-06	-3.565933e-06	-3.210231e-06	-2.370022e-06	-5.755193e-07	6.113753e-07	5.193821e-07	2.038785e-06	5.507796e-06	6.732193e-06	5.159859e-06	1.040263e-06	-2.400036e-06	-3.319610e-06	-3.907800e-06	-4.080671e-06	-4.192376e-06	-4.359187e-06	-4.514451e-06	-4.598216e-06	-4.643641e-06	-4.711315e-06	-4.794552e-06	-4.835516e-06	-4.852750e-06	-4.879269e-06	-4.903594e-06	-4.916194e-06	-4.920488e-06	-4.922908e-06	-4.918959e-06	-4.929396e-06	-4.941839e-06	-4.952614e-06	-4.959631e-06	-4.963538e-06	-4.968446e-06	-4.978123e-06	-4.988786e-06	-4.995831e-06	-4.998812e-06	-4.999842e-06	-5.000420e-06	-5.001274e-06	-5.002405e-06	-5.006887e-06	-5.017973e-06	-5.035820e-06	-5.057795e-06	-5.076050e-06	-5.085481e-06	-5.085450e-06	-5.077672e-06	-5.071585e-06	-5.073288e-06	-5.082338e-06	-5.097606e-06	-5.119355e-06	-5.144833e-06	-5.163225e-06	-5.167701e-06	-5.160099e-06	-5.149498e-06	-5.143481e-06	-5.144051e-06	-5.151770e-06	-5.175208e-06	-5.193631e-06	-5.213566e-06	-5.237900e-06	-5.264451e-06	-5.285181e-06	-5.295620e-06	-5.295892e-06	-5.284722e-06	-5.273916e-06	-5.276362e-06	-5.288959e-06	-5.307219e-06	-5.324755e-06	-5.327476e-06	-5.317715e-06	-5.310055e-06	-5.301809e-06	-5.311219e-06	-5.327315e-06	-5.334840e-06	-5.331567e-06	-5.324923e-06	-5.321698e-06	-5.322022e-06	-5.319965e-06	-5.313293e-06	-5.303267e-06	-5.294615e-06	-5.286940e-06	-5.279826e-06	-5.265385e-06	-5.239478e-06	-5.210253e-06	-5.182698e-06	-5.172085e-06	-5.169699e-06	-5.152083e-06	-5.109692e-06	-5.354699e-06	-5.604385e-06	-5.592655e-06	-5.598584e-06	-5.573125e-06	-5.504633e-06	-5.402343e-06	-5.275042e-06	-5.148914e-06	-5.072933e-06	-5.077693e-06	-5.106680e-06	-5.069417e-06	-4.948351e-06	-4.767497e-06	-4.548651e-06	-4.327411e-06	-4.204362e-06	-4.223047e-06	-4.257335e-06	-4.174046e-06	-3.941955e-06	-3.629762e-06	-3.279841e-06	-3.011043e-06	-2.965653e-06	-3.025866e-06	-2.971219e-06	-2.685405e-06	-2.271083e-06	-1.800459e-06	-1.408148e-06	-1.301505e-06	-1.362373e-06	-1.279808e-06	-8.840781e-07	-3.641458e-07	9.755320e-08	2.536132e-07	2.114670e-07	3.151711e-07	7.473218e-07	1.289941e-06	1.755840e-06	1.885804e-06	1.830627e-06	1.920089e-06	2.342126e-06	2.855713e-06	3.324097e-06	3.496046e-06	3.465900e-06	3.459013e-06	3.771602e-06	4.167734e-06	4.537635e-06	4.741540e-06	4.752851e-06	4.849425e-06	4.992756e-06	5.003636e-06	5.042715e-06	5.156291e-06	5.270238e-06	5.336737e-06	5.326638e-06	5.256427e-06	5.058463e-06	4.767982e-06	4.651657e-06	4.464040e-06	4.063931e-06	3.666313e-06	3.123610e-06	1.919010e-06	1.593356e-07	-1.378459e-06	
SCALARS Adjoint_Y-Momentum float 1
LOOKUP_TABLE default
1.834426e-06	3.879281e-06	9.318115e-06	5.834187e-06	9.696410e-06	8.425717e-06	1.041253e-05	1.138404e-05	1.166703e-05	1.164289e-05	1.164478e-05	1.168661e-05	9.715888e-06	1.169857e-05	9.750677e-06	9.928915e-06	1.013569e-05	1.172884e-05	1.021089e-05	1.172959e-05	1.025933e-05	1.044485e-05	1.176121e-05	1.065703e-05	1.073311e-05	1.077944e-05	1.095654e-05	1.116205e-05	1.178302e-05	1.124172e-05	1.127188e-05	1.140049e-05	1.154705e-05	1.161327e-05	1.163172e-05	1.167805e-05	1.180052e-05	1.175222e-05	1.179124e-05	1.179803e-05	1.180454e-05	1.181012e-05	1.183412e-05	1.181734e-05	1.181652e-05	1.182473e-05	1.183287e-05	1.184683e-05	1.184909e-05	5.228586e-07	9.540506e-06	7.674698e-06	6.129275e-06	6.122792e-06	6.144694e-06	6.145451e-06	6.109248e-06	6.030319e-06	5.946208e-06	5.876796e-06	5.828571e-06	5.809545e-06	5.835939e-06	5.845720e-06	5.816729e-06	5.782010e-06	5.723120e-06	5.677648e-06	5.651376e-06	5.646367e-06	5.656589e-06	5.658014e-06	5.645634e-06	5.619500e-06	5.578430e-06	5.533743e-06	5.488356e-06	5.452297e-06	5.436901e-06	5.443587e-06	5.454489e-06	5.460873e-06	5.451297e-06	5.425764e-06	5.386804e-06	5.341433e-06	5.290199e-06	5.236472e-06	5.180551e-06	5.128474e-06	5.090403e-06	5.071422e-06	5.072217e-06	5.085164e-06	5.102026e-06	5.103227e-06	5.085473e-06	5.048239e-06	4.998146e-06	4.941266e-06	4.880785e-06	4.818244e-06	4.755910e-06	4.703688e-06	4.671224e-06	4.660558e-06	4.668045e-06	4.679134e-06	4.658699e-06	4.608307e-06	4.548348e-06	4.507821e-06	4.502863e-06	4.507548e-06	4.490828e-06	4.445050e-06	4.386247e-06	4.324686e-06	4.270064e-06	4.236381e-06	4.232745e-06	4.244758e-06	4.251004e-06	4.236751e-06	4.201154e-06	4.148374e-06	4.086359e-06	4.023910e-06	3.961953e-06	3.901541e-06	3.849171e-06	3.812266e-06	3.792675e-06	3.789807e-06	3.792358e-06	3.782549e-06	3.749906e-06	3.692919e-06	3.610690e-06	3.510377e-06	3.392202e-06	3.245261e-06	3.048129e-06	2.757306e-06	2.265941e-06	1.300919e-06	-2.514720e-07	-1.039340e-06	2.216032e-06	6.415472e-06	6.792047e-06	3.736811e-06	3.260027e-07	-5.347493e-07	1.174302e-06	1.847668e-06	1.956041e-06	2.158047e-06	2.288098e-06	2.540973e-06	2.794874e-06	2.917130e-06	2.961008e-06	3.054967e-06	3.193439e-06	3.243590e-06	3.241148e-06	3.264633e-06	3.288683e-06	3.289976e-06	3.276015e-06	3.263331e-06	3.250277e-06	3.258954e-06	3.271750e-06	3.282385e-06	3.286245e-06	3.284821e-06	3.287149e-06	3.300647e-06	3.318083e-06	3.328757e-06	3.331599e-06	3.331258e-06	3.330066e-06	3.329359e-06	3.332908e-06	3.344783e-06	3.370332e-06	3.411461e-06	3.462602e-06	3.507212e-06	3.531230e-06	3.532841e-06	3.518105e-06	3.506440e-06	3.514157e-06	3.543141e-06	3.589800e-06	3.651864e-06	3.724043e-06	3.780076e-06	3.796843e-06	3.780173e-06	3.758565e-06	3.752721e-06	3.767540e-06	3.806586e-06	3.879570e-06	3.958190e-06	4.051453e-06	4.162455e-06	4.283456e-06	4.384858e-06	4.441577e-06	4.450706e-06	4.417334e-06	4.390538e-06	4.429285e-06	4.528802e-06	4.657659e-06	4.780107e-06	4.831298e-06	4.807702e-06	4.807106e-06	4.908159e-06	5.049697e-06	5.211312e-06	5.317597e-06	5.319843e-06	5.326357e-06	5.435333e-06	5.590122e-06	5.657812e-06	5.667920e-06	5.765002e-06	5.933752e-06	6.020431e-06	6.006706e-06	6.047516e-06	6.190600e-06	6.386969e-06	6.556711e-06	6.612723e-06	6.580712e-06	6.614967e-06	6.763201e-06	7.395834e-06	8.006497e-06	8.056013e-06	8.011298e-06	8.044202e-06	8.199529e-06	8.439782e-06	8.722355e-06	8.998816e-06	9.165971e-06	9.168914e-06	9.101565e-06	9.131895e-06	9.297473e-06	9.550294e-06	9.860419e-06	1.014644e-05	1.030328e-05	1.028886e-05	1.022796e-05	1.027653e-05	1.047015e-05	1.073537e-05	1.101705e-05	1.121265e-05	1.124751e-05	1.119348e-05	1.118403e-05	1.130318e-05	1.148293e-05	1.167876e-05	1.181457e-05	1.183970e-05	1.180511e-05	1.177393e-05	1.180747e-05	1.186659e-05	1.190427e-05	1.190829e-05	1.189043e-05	1.182535e-05	1.173472e-05	1.162818e-05	1.152611e-05	1.148150e-05	1.146951e-05	1.136029e-05	1.111915e-05	1.081689e-05	1.053538e-05	1.039275e-05	1.039289e-05	1.029901e-05	9.958614e-06	9.469525e-06	8.985380e-06	8.680653e-06	8.603705e-06	8.351703e-06	8.014485e-06	7.845016e-06	7.453482e-06	6.710347e-06	5.860224e-06	5.354864e-06	5.298426e-06	5.016600e-06	4.147344e-06	3.204887e-06	2.821808e-06	2.480896e-06	1.893844e-06	1.405461e-06	8.932437e-07	2.086141e-07	-1.822926e-07	-6.486787e-08	
SCALARS Adjoint_Energy float 1
LOOKUP_TABLE default