# vtk DataFile Version 3.0
vtk output
ASCII
DATASET UNSTRUCTURED_GRID
POINTS 324 float
3.085804e-01	-3.230213e-03	0.0	3.089526e-01	-2.604522e-03	0.0	3.492715e-01	5.209667e-03	0.0	3.095147e-01	-1.961682e-03	0.0	3.476966e-01	4.400654e-03	0.0	3.101596e-01	-1.396191e-03	0.0	3.109480e-01	-1.059579e-03	0.0	3.117682e-01	-7.994838e-04	0.0	3.126276e-01	-7.984141e-04	0.0	3.134890e-01	-8.638602e-04	0.0	3.143517e-01	-9.256926e-04	0.0	3.152157e-01	-9.854075e-04	0.0	3.469004e-01	4.013196e-03	0.0	3.160808e-01	-1.043356e-03	0.0	3.461063e-01	3.621450e-03	0.0	3.453074e-01	3.239690e-03	0.0	3.444980e-01	2.880663e-03	0.0	3.169474e-01	-1.093644e-03	0.0	3.436813e-01	2.538755e-03	0.0	3.178151e-01	-1.141949e-03	0.0	3.428659e-01	2.193951e-03	0.0	3.420457e-01	1.861087e-03	0.0	3.186839e-01	-1.187218e-03	0.0	3.412151e-01	1.555801e-03	0.0	3.403773e-01	1.271143e-03	0.0	3.395409e-01	9.828459e-04	0.0	3.387002e-01	7.085158e-04	0.0	3.378498e-01	4.667364e-04	0.0	3.195542e-01	-1.220909e-03	0.0	3.369925e-01	2.518513e-04	0.0	3.361364e-01	3.350940e-05	0.0	3.352778e-01	-1.730286e-04	0.0	3.344121e-01	-3.452022e-04	0.0	3.335416e-01	-4.895788e-04	0.0	3.326712e-01	-6.311072e-04	0.0	3.318010e-01	-7.718520e-04	0.0	3.204255e-01	-1.250547e-03	0.0	3.309276e-01	-8.860647e-04	0.0	3.300515e-01	-9.725823e-04	0.0	3.291748e-01	-1.047109e-03	0.0	3.282993e-01	-1.128879e-03	0.0	3.274245e-01	-1.210247e-03	0.0	3.265490e-01	-1.276510e-03	0.0	3.212979e-01	-1.271940e-03	0.0	3.221712e-01	-1.293108e-03	0.0	3.230453e-01	-1.314082e-03	0.0	3.239203e-01	-1.328909e-03	0.0	3.247961e-01	-1.331615e-03	0.0	3.256726e-01	-1.316176e-03	0.0	3.083361e-01	-3.913094e-03	0.0	3.484891e-01	4.795396e-03	0.0	3.500443e-01	5.641354e-03	0.0	3.505637e-01	5.940783e-03	0.0	3.510818e-01	6.242514e-03	0.0	3.516005e-01	6.543308e-03	0.0	3.521204e-01	6.842176e-03	0.0	3.526394e-01	7.142492e-03	0.0	3.531554e-01	7.448047e-03	0.0	3.536673e-01	7.760462e-03	0.0	3.541757e-01	8.078652e-03	0.0	3.546812e-01	8.401356e-03	0.0	3.551850e-01	8.726799e-03	0.0	3.556884e-01	9.052778e-03	0.0	3.561926e-01	9.377406e-03	0.0	3.566970e-01	9.701935e-03	0.0	3.571994e-01	1.002937e-02	0.0	3.576988e-01	1.036143e-02	0.0	3.581956e-01	1.069725e-02	0.0	3.586906e-01	1.103562e-02	0.0	3.591848e-01	1.137519e-02	0.0	3.596791e-01	1.171455e-02	0.0	3.601738e-01	1.205311e-02	0.0	3.606683e-01	1.239196e-02	0.0	3.611617e-01	1.273236e-02	0.0	3.616532e-01	1.307533e-02	0.0	3.621427e-01	1.342115e-02	0.0	3.626299e-01	1.376992e-02	0.0	3.631150e-01	1.412154e-02	0.0	3.635988e-01	1.447491e-02	0.0	3.640822e-01	1.482856e-02	0.0	3.645663e-01	1.518121e-02	0.0	3.650508e-01	1.553303e-02	0.0	3.655351e-01	1.588498e-02	0.0	3.660186e-01	1.623800e-02	0.0	3.665004e-01	1.659304e-02	0.0	3.669800e-01	1.695083e-02	0.0	3.674573e-01	1.731157e-02	0.0	3.679320e-01	1.767539e-02	0.0	3.684042e-01	1.804240e-02	0.0	3.688736e-01	1.841269e-02	0.0	3.693407e-01	1.878566e-02	0.0	3.698063e-01	1.916020e-02	0.0	3.702714e-01	1.953521e-02	0.0	3.707369e-01	1.990957e-02	0.0	3.712032e-01	2.028254e-02	0.0	3.716699e-01	2.065485e-02	0.0	3.721360e-01	2.102757e-02	0.0	3.726007e-01	2.140178e-02	0.0	3.730631e-01	2.177851e-02	0.0	3.735228e-01	2.215833e-02	0.0	3.739796e-01	2.254132e-02	0.0	3.744334e-01	2.292759e-02	0.0	3.748840e-01	2.331720e-02	0.0	3.753316e-01	2.371001e-02	0.0	3.757771e-01	2.410498e-02	0.0	3.762213e-01	2.450094e-02	0.0	3.766655e-01	2.489671e-02	0.0	3.771105e-01	2.529122e-02	0.0	3.775554e-01	2.568542e-02	0.0	3.779981e-01	2.608187e-02	0.0	3.784375e-01	2.648149e-02	0.0	3.788740e-01	2.688399e-02	0.0	3.793093e-01	2.728748e-02	0.0	3.797452e-01	2.768994e-02	0.0	3.801809e-01	2.809223e-02	0.0	3.806148e-01	2.849608e-02	0.0	3.810456e-01	2.890280e-02	0.0	3.814733e-01	2.931248e-02	0.0	3.818978e-01	2.972501e-02	0.0	3.823199e-01	3.013972e-02	0.0	3.827409e-01	3.055504e-02	0.0	3.831625e-01	3.096943e-02	0.0	3.835847e-01	3.138273e-02	0.0	3.840066e-01	3.179598e-02	0.0	3.844271e-01	3.221022e-02	0.0	3.848451e-01	3.262651e-02	0.0	3.852599e-01	3.304552e-02	0.0	3.856716e-01	3.346721e-02	0.0	3.860802e-01	3.389150e-02	0.0	3.864856e-01	3.431827e-02	0.0	3.868883e-01	3.474732e-02	0.0	3.872888e-01	3.517786e-02	0.0	3.876882e-01	3.560898e-02	0.0	3.880875e-01	3.603977e-02	0.0	3.884875e-01	3.646937e-02	0.0	3.888881e-01	3.689801e-02	0.0	3.892881e-01	3.732663e-02	0.0	3.896867e-01	3.775620e-02	0.0	3.900826e-01	3.818768e-02	0.0	3.904754e-01	3.862152e-02	0.0	3.908652e-01	3.905758e-02	0.0	3.912521e-01	3.949567e-02	0.0	3.916363e-01	3.993562e-02	0.0	3.920181e-01	4.037717e-02	0.0	3.923980e-01	4.081987e-02	0.0	3.927765e-01	4.126324e-02	0.0	3.931543e-01	4.170701e-02	0.0	3.935849e-01	4.208953e-02	0.0	3.941278e-01	4.229537e-02	0.0	3.947040e-01	4.232142e-02	0.0	3.952414e-01	4.210361e-02	0.0	3.957366e-01	4.165683e-02	0.0	3.960041e-01	4.105694e-02	0.0	3.960432e-01	4.038936e-02	0.0	3.957582e-01	3.978330e-02	0.0	3.954517e-01	3.918439e-02	0.0	3.951172e-01	3.860033e-02	0.0	3.947718e-01	3.802233e-02	0.0	3.944288e-01	3.744266e-02	0.0	3.940753e-01	3.686905e-02	0.0	3.937058e-01	3.630534e-02	0.0	3.933294e-01	3.574593e-02	0.0	3.929527e-01	3.518647e-02	0.0	3.925764e-01	3.462648e-02	0.0	3.921933e-01	3.407094e-02	0.0	3.918060e-01	3.351797e-02	0.0	3.914216e-01	3.296284e-02	0.0	3.910376e-01	3.240710e-02	0.0	3.906531e-01	3.185160e-02	0.0	3.902689e-01	3.129564e-02	0.0	3.898861e-01	3.073847e-02	0.0	3.895048e-01	3.018008e-02	0.0	3.891242e-01	2.962103e-02	0.0	3.887436e-01	2.906182e-02	0.0	3.883628e-01	2.850254e-02	0.0	3.879818e-01	2.794325e-02	0.0	3.876008e-01	2.738379e-02	0.0	3.872202e-01	2.682392e-02	0.0	3.868400e-01	2.626362e-02	0.0	3.864595e-01	2.570334e-02	0.0	3.860783e-01	2.514349e-02	0.0	3.856963e-01	2.458394e-02	0.0	3.853143e-01	2.402435e-02	0.0	3.849324e-01	2.346457e-02	0.0	3.845505e-01	2.290465e-02	0.0	3.841687e-01	2.234461e-02	0.0	3.837868e-01	2.178450e-02	0.0	3.834044e-01	2.122460e-02	0.0	3.830209e-01	2.066543e-02	0.0	3.826354e-01	2.010755e-02	0.0	3.822472e-01	1.955150e-02	0.0	3.818563e-01	1.899729e-02	0.0	3.814637e-01	1.844420e-02	0.0	3.810706e-01	1.789143e-02	0.0	3.806781e-01	1.733822e-02	0.0	3.802864e-01	1.678436e-02	0.0	3.798946e-01	1.623061e-02	0.0	3.795014e-01	1.567777e-02	0.0	3.791060e-01	1.512656e-02	0.0	3.787075e-01	1.457756e-02	0.0	3.783051e-01	1.403133e-02	0.0	3.778993e-01	1.348775e-02	0.0	3.774917e-01	1.294545e-02	0.0	3.770845e-01	1.240292e-02	0.0	3.766786e-01	1.185945e-02	0.0	3.762731e-01	1.131572e-02	0.0	3.758669e-01	1.077254e-02	0.0	3.754589e-01	1.023076e-02	0.0	3.750481e-01	9.691202e-03	0.0	3.746336e-01	9.154567e-03	0.0	3.742145e-01	8.621531e-03	0.0	3.737901e-01	8.092786e-03	0.0	3.733598e-01	7.569026e-03	0.0	3.729239e-01	7.049953e-03	0.0	3.724845e-01	6.533896e-03	0.0	3.720439e-01	6.019046e-03	0.0	3.716041e-01	5.503582e-03	0.0	3.711665e-01	4.986414e-03	0.0	3.707284e-01	4.469844e-03	0.0	3.702861e-01	3.956989e-03	0.0	3.698379e-01	3.449392e-03	0.0	3.693834e-01	2.947656e-03	0.0	3.689248e-01	2.449865e-03	0.0	3.684664e-01	1.951943e-03	0.0	3.680095e-01	1.452949e-03	0.0	3.675499e-01	9.565835e-04	0.0	3.670845e-01	4.659658e-04	0.0	3.666122e-01	-1.784669e-05	0.0	3.661336e-01	-4.952477e-04	0.0	3.656532e-01	-9.705890e-04	0.0	3.651745e-01	-1.447378e-03	0.0	3.646928e-01	-1.920808e-03	0.0	3.642040e-01	-2.386786e-03	0.0	3.637098e-01	-2.846603e-03	0.0	3.632161e-01	-3.306775e-03	0.0	3.627206e-01	-3.764582e-03	0.0	3.622181e-01	-4.214493e-03	0.0	3.617094e-01	-4.657001e-03	0.0	3.612008e-01	-5.099338e-03	0.0	3.606927e-01	-5.541840e-03	0.0	3.601798e-01	-5.978494e-03	0.0	3.596596e-01	-6.406048e-03	0.0	3.591319e-01	-6.823864e-03	0.0	3.585997e-01	-7.235503e-03	0.0	3.580685e-01	-7.647979e-03	0.0	3.575381e-01	-8.061233e-03	0.0	3.570034e-01	-8.468280e-03	0.0	3.564613e-01	-8.865139e-03	0.0	3.558462e-01	-9.296533e-03	0.0	3.552260e-01	-9.720815e-03	0.0	3.546077e-01	-1.014782e-02	0.0	3.539899e-01	-1.057572e-02	0.0	3.533677e-01	-1.099729e-02	0.0	3.527373e-01	-1.140643e-02	0.0	3.520973e-01	-1.180049e-02	0.0	3.514471e-01	-1.217751e-02	0.0	3.507891e-01	-1.254059e-02	0.0	3.501287e-01	-1.289942e-02	0.0	3.494709e-01	-1.326294e-02	0.0	3.488141e-01	-1.362821e-02	0.0	3.481530e-01	-1.398570e-02	0.0	3.474837e-01	-1.432725e-02	0.0	3.468049e-01	-1.464935e-02	0.0	3.461162e-01	-1.494947e-02	0.0	3.454202e-01	-1.523238e-02	0.0	3.447227e-01	-1.551103e-02	0.0	3.440278e-01	-1.579619e-02	0.0	3.433332e-01	-1.608136e-02	0.0	3.426333e-01	-1.635326e-02	0.0	3.419253e-01	-1.660284e-02	0.0	3.412089e-01	-1.682658e-02	0.0	3.404850e-01	-1.702427e-02	0.0	3.397580e-01	-1.720959e-02	0.0	3.390323e-01	-1.739950e-02	0.0	3.383080e-01	-1.759389e-02	0.0	3.375808e-01	-1.777635e-02	0.0	3.368479e-01	-1.793316e-02	0.0	3.361094e-01	-1.805972e-02	0.0	3.353663e-01	-1.815450e-02	0.0	3.346213e-01	-1.823091e-02	0.0	3.338768e-01	-1.830991e-02	0.0	3.331331e-01	-1.839468e-02	0.0	3.323881e-01	-1.846271e-02	0.0	3.316411e-01	-1.849889e-02	0.0	3.308935e-01	-1.850123e-02	0.0	3.301464e-01	-1.848006e-02	0.0	3.293995e-01	-1.846009e-02	0.0	3.286529e-01	-1.844482e-02	0.0	3.279072e-01	-1.841066e-02	0.0	3.271642e-01	-1.834286e-02	0.0	3.264256e-01	-1.823925e-02	0.0	3.256910e-01	-1.811200e-02	0.0	3.249563e-01	-1.798743e-02	0.0	3.242212e-01	-1.786757e-02	0.0	3.234899e-01	-1.772845e-02	0.0	3.227665e-01	-1.755449e-02	0.0	3.220536e-01	-1.734303e-02	0.0	3.213504e-01	-1.710210e-02	0.0	3.206490e-01	-1.685733e-02	0.0	3.199448e-01	-1.662183e-02	0.0	3.192454e-01	-1.637375e-02	0.0	3.185593e-01	-1.609226e-02	0.0	3.178902e-01	-1.577352e-02	0.0	3.172381e-01	-1.542217e-02	0.0	3.165914e-01	-1.506178e-02	0.0	3.159437e-01	-1.470419e-02	0.0	3.153142e-01	-1.431650e-02	0.0	3.146902e-01	-1.392078e-02	0.0	3.140682e-01	-1.352281e-02	0.0	3.134652e-01	-1.309771e-02	0.0	3.128945e-01	-1.263095e-02	0.0	3.123623e-01	-1.212149e-02	0.0	3.118408e-01	-1.160155e-02	0.0	3.113118e-01	-1.109011e-02	0.0	3.108081e-01	-1.055470e-02	0.0	3.103577e-01	-9.974589e-03	0.0	3.099574e-01	-9.359202e-03	0.0	3.095563e-01	-8.745006e-03	0.0	3.091991e-01	-8.105295e-03	0.0	3.088775e-01	-7.447271e-03	0.0	3.085931e-01	-6.773398e-03	0.0	3.083583e-01	-6.080923e-03	0.0	3.082394e-01	-5.362770e-03	0.0	3.082284e-01	-4.634417e-03	0.0	
CELLS 324	972
2	51	52	2	52	53	2	53	54	2	54	55	2	55	56	2	56	57	2	57	58	2	58	59	2	59	60	2	60	61	2	61	62	2	62	63	2	63	64	2	64	65	2	65	66	2	66	67	2	67	68	2	68	69	2	69	70	2	70	71	2	71	72	2	72	73	2	73	74	2	74	75	2	75	76	2	76	77	2	77	78	2	78	79	2	79	80	2	80	81	2	81	82	2	82	83	2	83	84	2	84	85	2	85	86	2	86	87	2	87	88	2	88	89	2	89	90	2	90	91	2	91	92	2	92	93	2	93	94	2	94	95	2	95	96	2	96	97	2	97	98	2	98	99	2	99	100	2	100	101	2	101	102	2	102	103	2	103	104	2	104	105	2	105	106	2	106	107	2	107	108	2	108	109	2	109	110	2	110	111	2	111	112	2	112	113	2	113	114	2	114	115	2	115	116	2	116	117	2	117	118	2	118	119	2	119	120	2	120	121	2	121	122	2	122	123	2	123	124	2	124	125	2	125	126	2	126	127	2	127	128	2	128	129	2	129	130	2	130	131	2	131	132	2	132	133	2	133	134	2	134	135	2	135	136	2	136	137	2	137	138	2	138	139	2	139	140	2	140	141	2	141	142	2	142	143	2	143	144	2	144	145	2	145	146	2	146	147	2	147	148	2	148	149	2	149	150	2	150	151	2	151	152	2	152	153	2	153	154	2	154	155	2	155	156	2	156	157	2	157	158	2	158	159	2	159	160	2	160	161	2	161	162	2	162	163	2	163	164	2	164	165	2	165	166	2	166	167	2	167	168	2	168	169	2	169	170	2	170	171	2	171	172	2	172	173	2	173	174	2	174	175	2	175	176	2	176	177	2	177	178	2	178	179	2	179	180	2	180	181	2	181	182	2	182	183	2	183	184	2	184	185	2	185	186	2	186	187	2	187	188	2	188	189	2	189	190	2	190	191	2	191	192	2	192	193	2	193	194	2	194	195	2	195	196	2	196	197	2	197	198	2	198	199	2	199	200	2	200	201	2	201	202	2	202	203	2	203	204	2	204	205	2	205	206	2	206	207	2	207	208	2	208	209	2	209	210	2	210	211	2	211	212	2	212	213	2	213	214	2	214	215	2	215	216	2	216	217	2	217	218	2	218	219	2	219	220	2	220	221	2	221	222	2	222	223	2	223	224	2	224	225	2	225	226	2	226	227	2	227	228	2	228	229	2	229	230	2	230	231	2	231	232	2	232	233	2	233	234	2	234	235	2	235	236	2	236	237	2	237	238	2	238	239	2	239	240	2	240	241	2	241	242	2	242	243	2	243	244	2	244	245	2	245	246	2	246	247	2	247	248	2	248	249	2	249	250	2	250	251	2	251	252	2	252	253	2	253	254	2	254	255	2	255	256	2	256	257	2	257	258	2	258	259	2	259	260	2	260	261	2	261	262	2	262	263	2	263	264	2	264	265	2	265	266	2	266	267	2	267	268	2	268	269	2	269	270	2	270	271	2	271	272	2	272	273	2	273	274	2	274	275	2	275	276	2	276	277	2	277	278	2	278	279	2	279	280	2	280	281	2	281	282	2	282	283	2	283	284	2	284	285	2	285	286	2	286	287	2	287	288	2	288	289	2	289	290	2	290	291	2	291	292	2	292	293	2	293	294	2	294	295	2	295	296	2	296	297	2	297	298	2	298	299	2	299	300	2	300	301	2	301	302	2	302	303	2	303	304	2	304	305	2	305	306	2	306	307	2	307	308	2	308	309	2	309	310	2	310	311	2	311	312	2	312	313	2	313	314	2	314	315	2	315	316	2	316	317	2	317	318	2	318	319	2	319	320	2	320	321	2	321	322	2	322	323	2	323	49	2	49	0	2	0	1	2	1	3	2	3	5	2	5	6	2	6	7	2	7	8	2	8	9	2	9	10	2	10	11	2	11	13	2	13	17	2	17	19	2	19	22	2	22	28	2	28	36	2	36	43	2	43	44	2	44	45	2	45	46	2	46	47	2	47	48	2	48	42	2	42	41	2	41	40	2	40	39	2	39	38	2	38	37	2	37	35	2	35	34	2	34	33	2	33	32	2	32	31	2	31	30	2	30	29	2	29	27	2	27	26	2	26	25	2	25	24	2	24	23	2	23	21	2	21	20	2	20	18	2	18	16	2	16	15	2	15	14	2	14	12	2	12	4	2	4	50	2	50	2	2	2	51	
CELL_TYPES 324
3	3	3	3	3	3	3	3	3	3	3	3	3	3	3	3	3	3	3	3	3	3	3	3	3	3	3	3	3	3	3	3	3	3	3	3	3	3	3	3	3	3	3	3	3	3	3	3	3	3	3	3	3	3	3	3	3	3	3	3	3	3	3	3	3	3	3	3	3	3	3	3	3	3	3	3	3	3	3	3	3	3	3	3	3	3	3	3	3	3	3	3	3	3	3	3	3	3	3	3	3	3	3	3	3	3	3	3	3	3	3	3	3	3	3	3	3	3	3	3	3	3	3	3	3	3	3	3	3	3	3	3	3	3	3	3	3	3	3	3	3	3	3	3	3	3	3	3	3	3	3	3	3	3	3	3	3	3	3	3	3	3	3	3	3	3	3	3	3	3	3	3	3	3	3	3	3	3	3	3	3	3	3	3	3	3	3	3	3	3	3	3	3	3	3	3	3	3	3	3	3	3	3	3	3	3	3	3	3	3	3	3	3	3	3	3	3	3	3	3	3	3	3	3	3	3	3	3	3	3	3	3	3	3	3	3	3	3	3	3	3	3	3	3	3	3	3	3	3	3	3	3	3	3	3	3	3	3	3	3	3	3	3	3	3	3	3	3	3	3	3	3	3	3	3	3	3	3	3	3	3	3	3	3	3	3	3	3	3	3	3	3	3	3	3	3	3	3	3	3	3	3	3	3	3	3	3	3	3	3	3	3	3	3	3	3	3	3	3	3	3	3	3	3	
POINT_DATA 324

SCALARS Density float 1
LOOKUP_TABLE default
1.898105e+00	1.983098e+00	1.910195e+00	2.034814e+00	1.913042e+00	2.060283e+00	2.043010e+00	2.004662e+00	1.966008e+00	1.952780e+00	1.949080e+00	1.946282e+00	1.918112e+00	1.944173e+00	1.923556e+00	1.925701e+00	1.926377e+00	1.942256e+00	1.929648e+00	1.940427e+00	1.933910e+00	1.935048e+00	1.939444e+00	1.934650e+00	1.936905e+00	1.940280e+00	1.940477e+00	1.938709e+00	1.938532e+00	1.939406e+00	1.941903e+00	1.941641e+00	1.939092e+00	1.938167e+00	1.939849e+00	1.940415e+00	1.937408e+00	1.938290e+00	1.936087e+00	1.936618e+00	1.939316e+00	1.941295e+00	1.941137e+00	1.936127e+00	1.934836e+00	1.934624e+00	1.935598e+00	1.937324e+00	1.939401e+00	1.787264e+00	1.911298e+00	1.906681e+00	1.902044e+00	1.896575e+00	1.891046e+00	1.886733e+00	1.884256e+00	1.882705e+00	1.880693e+00	1.877561e+00	1.873335e+00	1.868101e+00	1.862201e+00	1.856728e+00	1.852775e+00	1.850003e+00	1.847028e+00	1.843025e+00	1.838082e+00	1.832471e+00	1.826706e+00	1.821619e+00	1.817610e+00	1.814352e+00	1.811267e+00	1.807947e+00	1.804245e+00	1.799851e+00	1.794555e+00	1.788672e+00	1.783061e+00	1.778520e+00	1.775095e+00	1.772458e+00	1.770241e+00	1.768005e+00	1.765469e+00	1.762589e+00	1.759327e+00	1.755432e+00	1.750594e+00	1.744891e+00	1.738693e+00	1.732522e+00	1.727289e+00	1.723577e+00	1.721143e+00	1.719527e+00	1.718179e+00	1.716544e+00	1.714393e+00	1.711721e+00	1.708422e+00	1.704114e+00	1.698617e+00	1.692281e+00	1.685667e+00	1.680031e+00	1.676682e+00	1.674807e+00	1.672471e+00	1.668425e+00	1.662587e+00	1.656957e+00	1.653345e+00	1.651300e+00	1.649350e+00	1.646541e+00	1.642546e+00	1.636985e+00	1.630062e+00	1.623177e+00	1.617899e+00	1.614512e+00	1.612379e+00	1.610708e+00	1.608585e+00	1.605509e+00	1.601479e+00	1.596476e+00	1.590209e+00	1.582525e+00	1.573774e+00	1.564542e+00	1.555920e+00	1.548987e+00	1.543679e+00	1.539207e+00	1.534528e+00	1.528444e+00	1.520252e+00	1.509670e+00	1.496158e+00	1.478610e+00	1.455126e+00	1.421749e+00	1.335426e+00	1.185182e+00	1.137507e+00	1.196868e+00	1.310047e+00	1.342554e+00	1.334330e+00	1.400194e+00	1.462087e+00	1.453305e+00	1.456568e+00	1.452103e+00	1.448963e+00	1.453359e+00	1.457768e+00	1.458052e+00	1.456571e+00	1.457630e+00	1.460479e+00	1.460258e+00	1.458772e+00	1.458405e+00	1.457866e+00	1.456513e+00	1.454649e+00	1.452792e+00	1.451160e+00	1.449595e+00	1.447968e+00	1.446207e+00	1.444165e+00	1.441861e+00	1.439605e+00	1.437618e+00	1.435662e+00	1.433421e+00	1.430883e+00	1.428172e+00	1.425325e+00	1.422311e+00	1.419225e+00	1.416321e+00	1.413799e+00	1.411796e+00	1.410188e+00	1.408403e+00	1.406006e+00	1.402807e+00	1.398871e+00	1.394818e+00	1.391151e+00	1.387979e+00	1.385381e+00	1.383513e+00	1.382215e+00	1.380481e+00	1.377348e+00	1.372762e+00	1.367551e+00	1.362435e+00	1.357566e+00	1.353150e+00	1.349363e+00	1.346389e+00	1.344531e+00	1.344192e+00	1.345128e+00	1.345944e+00	1.345374e+00	1.342642e+00	1.337227e+00	1.331025e+00	1.326976e+00	1.325625e+00	1.326469e+00	1.327863e+00	1.326177e+00	1.320527e+00	1.315045e+00	1.313067e+00	1.314284e+00	1.317649e+00	1.319503e+00	1.315996e+00	1.311726e+00	1.312677e+00	1.316636e+00	1.316235e+00	1.312334e+00	1.313070e+00	1.318243e+00	1.319539e+00	1.314858e+00	1.311693e+00	1.313882e+00	1.320162e+00	1.327174e+00	1.328617e+00	1.323892e+00	1.320595e+00	1.322992e+00	1.330934e+00	1.338820e+00	1.339065e+00	1.332078e+00	1.325683e+00	1.323926e+00	1.327114e+00	1.335321e+00	1.346885e+00	1.354921e+00	1.353161e+00	1.343968e+00	1.335272e+00	1.331920e+00	1.334438e+00	1.343062e+00	1.355494e+00	1.363087e+00	1.358646e+00	1.346350e+00	1.336556e+00	1.334019e+00	1.338821e+00	1.350584e+00	1.362054e+00	1.361341e+00	1.348003e+00	1.333443e+00	1.327074e+00	1.329605e+00	1.340796e+00	1.354361e+00	1.355931e+00	1.341512e+00	1.325618e+00	1.321756e+00	1.329468e+00	1.341977e+00	1.343496e+00	1.326976e+00	1.308436e+00	1.302603e+00	1.309975e+00	1.323249e+00	1.323695e+00	1.303341e+00	1.279450e+00	1.268841e+00	1.273963e+00	1.290458e+00	1.299314e+00	1.282210e+00	1.251313e+00	1.232343e+00	1.233247e+00	1.251353e+00	1.266354e+00	1.254064e+00	1.245282e+00	1.244898e+00	1.216263e+00	1.179734e+00	1.171659e+00	1.207986e+00	1.249928e+00	1.239626e+00	1.202737e+00	1.210671e+00	1.272589e+00	1.306964e+00	1.320290e+00	1.353290e+00	1.379259e+00	1.396606e+00	1.451858e+00	1.553052e+00	1.665811e+00	
SCALARS X-Momentum float 1
LOOKUP_TABLE default
0.000000e+00	0.000000e+00	0.000000e+00	0.000000e+00	0.000000e+00	0.000000e+00	0.000000e+00	0.000000e+00	0.000000e+00	0.000000e+00	0.000000e+00	0.000000e+00	0.000000e+00	0.000000e+00	0.000000e+00	0.000000e+00	0.000000e+00	0.000000e+00	0.000000e+00	0.000000e+00	0.000000e+00	0.000000e+00	0.000000e+00	0.000000e+00	0.000000e+00	0.000000e+00	0.000000e+00	0.000000e+00	0.000000e+00	0.000000e+00	0.000000e+00	0.000000e+00	0.000000e+00	0.000000e+00	0.000000e+00	0.000000e+00	0.000000e+00	0.000000e+00	0.000000e+00	0.000000e+00	0.000000e+00	0.000000e+00	0.000000e+00	0.000000e+00	0.000000e+00	0.000000e+00	0.000000e+00	0.000000e+00	0.000000e+00	0.000000e+00	0.000000e+00	0.000000e+00	0.000000e+00	0.000000e+00	0.000000e+00	0.000000e+00	0.000000e+00	0.000000e+00	0.000000e+00	0.000000e+00	0.000000e+00	0.000000e+00	0.000000e+00	0.000000e+00	0.000000e+00	0.000000e+00	0.000000e+00	0.000000e+00	0.000000e+00	0.000000e+00	0.000000e+00	0.000000e+00	0.000000e+00	0.000000e+00	0.000000e+00	0.000000e+00	0.000000e+00	0.000000e+00	0.000000e+00	0.000000e+00	0.000000e+00	0.000000e+00	0.000000e+00	0.000000e+00	0.000000e+00	0.000000e+00	0.000000e+00	0.000000e+00	0.000000e+00	0.000000e+00	0.000000e+00	0.000000e+00	0.000000e+00	0.000000e+00	0.000000e+00	0.000000e+00	0.000000e+00	0.000000e+00	0.000000e+00	0.000000e+00	0.000000e+00	0.000000e+00	0.000000e+00	0.000000e+00	0.000000e+00	0.000000e+00	0.000000e+00	0.000000e+00	0.000000e+00	0.000000e+00	0.000000e+00	0.000000e+00	0.000000e+00	0.000000e+00	0.000000e+00	0.000000e+00	0.000000e+00	0.000000e+00	0.000000e+00	0.000000e+00	0.000000e+00	0.000000e+00	0.000000e+00	0.000000e+00	0.000000e+00	0.000000e+00	0.000000e+00	0.000000e+00	0.000000e+00	0.000000e+00	0.000000e+00	0.000000e+00	0.000000e+00	0.000000e+00	0.000000e+00	0.000000e+00	0.000000e+00	0.000000e+00	0.000000e+00	0.000000e+00	0.000000e+00	0.000000e+00	0.000000e+00	0.000000e+00	0.000000e+00	0.000000e+00	0.000000e+00	0.000000e+00	0.000000e+00	0.000000e+00	0.000000e+00	0.000000e+00	0.000000e+00	0.000000e+00	0.000000e+00	0.000000e+00	0.000000e+00	0.000000e+00	0.000000e+00	0.000000e+00	0.000000e+00	0.000000e+00	0.000000e+00	0.000000e+00	0.000000e+00	0.000000e+00	0.000000e+00	0.000000e+00	0.000000e+00	0.000000e+00	0.000000e+00	0.000000e+00	0.000000e+00	0.000000e+00	0.000000e+00	0.000000e+00	0.000000e+00	0.000000e+00	0.000000e+00	0.000000e+00	0.000000e+00	0.000000e+00	0.000000e+00	0.000000e+00	0.000000e+00	0.000000e+00	0.000000e+00	0.000000e+00	0.000000e+00	0.000000e+00	0.000000e+00	0.000000e+00	0.000000e+00	0.000000e+00	0.000000e+00	0.000000e+00	0.000000e+00	0.000000e+00	0.000000e+00	0.000000e+00	0.000000e+00	0.000000e+00	0.000000e+00	0.000000e+00	0.000000e+00	0.000000e+00	0.000000e+00	0.000000e+00	0.000000e+00	0.000000e+00	0.000000e+00	0.000000e+00	0.000000e+00	0.000000e+00	0.000000e+00	0.000000e+00	0.000000e+00	0.000000e+00	0.000000e+00	0.000000e+00	0.000000e+00	0.000000e+00	0.000000e+00	0.000000e+00	0.000000e+00	0.000000e+00	0.000000e+00	0.000000e+00	0.000000e+00	0.000000e+00	0.000000e+00	0.000000e+00	0.000000e+00	0.000000e+00	0.000000e+00	0.000000e+00	0.000000e+00	0.000000e+00	0.000000e+00	0.000000e+00	0.000000e+00	0.000000e+00	0.000000e+00	0.000000e+00	0.000000e+00	0.000000e+00	0.000000e+00	0.000000e+00	0.000000e+00	0.000000e+00	0.000000e+00	0.000000e+00	0.000000e+00	0.000000e+00	0.000000e+00	0.000000e+00	0.000000e+00	0.000000e+00	0.000000e+00	0.000000e+00	0.000000e+00	0.000000e+00	0.000000e+00	0.000000e+00	0.000000e+00	0.000000e+00	0.000000e+00	0.000000e+00	0.000000e+00	0.000000e+00	0.000000e+00	0.000000e+00	0.000000e+00	0.000000e+00	0.000000e+00	0.000000e+00	0.000000e+00	0.000000e+00	0.000000e+00	0.000000e+00	0.000000e+00	0.000000e+00	0.000000e+00	0.000000e+00	0.000000e+00	0.000000e+00	0.000000e+00	0.000000e+00	0.000000e+00	0.000000e+00	0.000000e+00	0.000000e+00	0.000000e+00	0.000000e+00	0.000000e+00	0.000000e+00	0.000000e+00	0.000000e+00	0.000000e+00	0.000000e+00	0.000000e+00	0.000000e+00	0.000000e+00	0.000000e+00	0.000000e+00	0.000000e+00	0.000000e+00	0.000000e+00	0.000000e+00	0.000000e+00	0.000000e+00	0.000000e+00	0.000000e+00	0.000000e+00	0.000000e+00	0.000000e+00	0.000000e+00	0.000000e+00	0.000000e+00	0.000000e+00	0.000000e+00	0.000000e+00	0.000000e+00	0.000000e+00	
SCALARS Y-Momentum float 1
LOOKUP_TABLE default
-5.650013e+02	-5.903008e+02	-5.686000e+02	-6.056949e+02	-5.694474e+02	-6.132763e+02	-6.081346e+02	-5.967197e+02	-5.852138e+02	-5.812762e+02	-5.801748e+02	-5.793420e+02	-5.709567e+02	-5.787142e+02	-5.725772e+02	-5.732157e+02	-5.734169e+02	-5.781436e+02	-5.743906e+02	-5.775991e+02	-5.756593e+02	-5.759979e+02	-5.773065e+02	-5.758796e+02	-5.765508e+02	-5.775555e+02	-5.776141e+02	-5.770878e+02	-5.770350e+02	-5.772951e+02	-5.780384e+02	-5.779606e+02	-5.772018e+02	-5.769264e+02	-5.774270e+02	-5.775956e+02	-5.767004e+02	-5.769631e+02	-5.763073e+02	-5.764652e+02	-5.772684e+02	-5.778576e+02	-5.778105e+02	-5.763191e+02	-5.759350e+02	-5.758717e+02	-5.761617e+02	-5.766756e+02	-5.772937e+02	-5.320078e+02	-5.689285e+02	-5.675541e+02	-5.661737e+02	-5.645460e+02	-5.629001e+02	-5.616164e+02	-5.608790e+02	-5.604174e+02	-5.598184e+02	-5.588862e+02	-5.576283e+02	-5.560701e+02	-5.543140e+02	-5.526849e+02	-5.515082e+02	-5.506830e+02	-5.497975e+02	-5.486060e+02	-5.471344e+02	-5.454644e+02	-5.437483e+02	-5.422340e+02	-5.410407e+02	-5.400709e+02	-5.391525e+02	-5.381643e+02	-5.370623e+02	-5.357544e+02	-5.341781e+02	-5.324267e+02	-5.307566e+02	-5.294049e+02	-5.283854e+02	-5.276005e+02	-5.269404e+02	-5.262748e+02	-5.255200e+02	-5.246627e+02	-5.236920e+02	-5.225324e+02	-5.210923e+02	-5.193948e+02	-5.175497e+02	-5.157128e+02	-5.141553e+02	-5.130504e+02	-5.123257e+02	-5.118448e+02	-5.114433e+02	-5.109567e+02	-5.103164e+02	-5.095211e+02	-5.085393e+02	-5.072568e+02	-5.056204e+02	-5.037344e+02	-5.017658e+02	-5.000882e+02	-4.990914e+02	-4.985331e+02	-4.978379e+02	-4.966335e+02	-4.948955e+02	-4.932197e+02	-4.921445e+02	-4.915360e+02	-4.909554e+02	-4.901193e+02	-4.889301e+02	-4.872747e+02	-4.852142e+02	-4.831645e+02	-4.815937e+02	-4.805853e+02	-4.799505e+02	-4.794530e+02	-4.788211e+02	-4.779055e+02	-4.767059e+02	-4.752165e+02	-4.733511e+02	-4.710639e+02	-4.684591e+02	-4.657108e+02	-4.631445e+02	-4.610809e+02	-4.595008e+02	-4.581696e+02	-4.567768e+02	-4.549657e+02	-4.525273e+02	-4.493773e+02	-4.453553e+02	-4.401319e+02	-4.331414e+02	-4.232065e+02	-3.975109e+02	-3.527885e+02	-3.385971e+02	-3.562668e+02	-3.899564e+02	-3.996328e+02	-3.971846e+02	-4.167903e+02	-4.352137e+02	-4.325996e+02	-4.335708e+02	-4.322418e+02	-4.313070e+02	-4.326156e+02	-4.339280e+02	-4.340126e+02	-4.335716e+02	-4.338868e+02	-4.347350e+02	-4.346692e+02	-4.342270e+02	-4.341176e+02	-4.339570e+02	-4.335544e+02	-4.329995e+02	-4.324468e+02	-4.319611e+02	-4.314952e+02	-4.310109e+02	-4.304865e+02	-4.298787e+02	-4.291930e+02	-4.285215e+02	-4.279300e+02	-4.273478e+02	-4.266807e+02	-4.259253e+02	-4.251182e+02	-4.242706e+02	-4.233736e+02	-4.224551e+02	-4.215905e+02	-4.208398e+02	-4.202436e+02	-4.197649e+02	-4.192336e+02	-4.185202e+02	-4.175678e+02	-4.163962e+02	-4.151899e+02	-4.140982e+02	-4.131543e+02	-4.123809e+02	-4.118248e+02	-4.114386e+02	-4.109221e+02	-4.099898e+02	-4.086247e+02	-4.070734e+02	-4.055505e+02	-4.041012e+02	-4.027869e+02	-4.016596e+02	-4.007742e+02	-4.002212e+02	-4.001201e+02	-4.003988e+02	-4.006417e+02	-4.004720e+02	-3.996589e+02	-3.980469e+02	-3.962010e+02	-3.949956e+02	-3.945935e+02	-3.948448e+02	-3.952598e+02	-3.947577e+02	-3.930760e+02	-3.914441e+02	-3.908554e+02	-3.912178e+02	-3.922193e+02	-3.927713e+02	-3.917272e+02	-3.904561e+02	-3.907392e+02	-3.919178e+02	-3.917984e+02	-3.906371e+02	-3.908564e+02	-3.923962e+02	-3.927818e+02	-3.913884e+02	-3.904463e+02	-3.910981e+02	-3.929675e+02	-3.950544e+02	-3.954842e+02	-3.940775e+02	-3.930961e+02	-3.938098e+02	-3.961739e+02	-3.985211e+02	-3.985943e+02	-3.965144e+02	-3.946108e+02	-3.940878e+02	-3.950367e+02	-3.974798e+02	-4.009219e+02	-4.033140e+02	-4.027901e+02	-4.000537e+02	-3.974652e+02	-3.964674e+02	-3.972168e+02	-3.997839e+02	-4.034844e+02	-4.057447e+02	-4.044228e+02	-4.007626e+02	-3.978473e+02	-3.970922e+02	-3.985214e+02	-4.020229e+02	-4.054372e+02	-4.052250e+02	-4.012547e+02	-3.969205e+02	-3.950249e+02	-3.957782e+02	-3.991095e+02	-4.031471e+02	-4.036145e+02	-3.993224e+02	-3.945913e+02	-3.934418e+02	-3.957373e+02	-3.994608e+02	-3.999130e+02	-3.949955e+02	-3.894770e+02	-3.877408e+02	-3.899350e+02	-3.938864e+02	-3.940190e+02	-3.879603e+02	-3.808488e+02	-3.776908e+02	-3.792153e+02	-3.841254e+02	-3.867616e+02	-3.816702e+02	-3.724734e+02	-3.668267e+02	-3.670956e+02	-3.724854e+02	-3.769507e+02	-3.732923e+02	-3.706780e+02	-3.705639e+02	-3.620401e+02	-3.511668e+02	-3.487631e+02	-3.595763e+02	-3.720611e+02	-3.689945e+02	-3.580140e+02	-3.603756e+02	-3.788065e+02	-3.890388e+02	-3.930055e+02	-4.028283e+02	-4.105586e+02	-4.157222e+02	-4.321688e+02	-4.622907e+02	-4.958554e+02	
SCALARS Energy float 1
LOOKUP_TABLE default