# vtk DataFile Version 3.0
vtk output
ASCII
DATASET UNSTRUCTURED_GRID
POINTS 266 float
1.958145e-01	1.009093e-01	0.0	1.936790e-01	1.028496e-01	0.0	1.924671e-01	1.038195e-01	0.0	1.911782e-01	1.048095e-01	0.0	1.898431e-01	1.058582e-01	0.0	1.884320e-01	1.069248e-01	0.0	1.869083e-01	1.079534e-01	0.0	1.852790e-01	1.089422e-01	0.0	1.835840e-01	1.099470e-01	0.0	1.818370e-01	1.109833e-01	0.0	1.799952e-01	1.119664e-01	0.0	1.780439e-01	1.128438e-01	0.0	1.760249e-01	1.136823e-01	0.0	1.739709e-01	1.145419e-01	0.0	1.718352e-01	1.152819e-01	0.0	1.696388e-01	1.159218e-01	0.0	1.674194e-01	1.165535e-01	0.0	1.651600e-01	1.170775e-01	0.0	1.628637e-01	1.174375e-01	0.0	1.260719e-01	1.086992e-01	0.0	1.269797e-01	1.094985e-01	0.0	1.605698e-01	1.177939e-01	0.0	1.582739e-01	1.180487e-01	0.0	1.559830e-01	1.181135e-01	0.0	1.537164e-01	1.181192e-01	0.0	1.279634e-01	1.103152e-01	0.0	1.514825e-01	1.181423e-01	0.0	1.492905e-01	1.180431e-01	0.0	1.290238e-01	1.111498e-01	0.0	1.301716e-01	1.119870e-01	0.0	1.314345e-01	1.127851e-01	0.0	1.328038e-01	1.135455e-01	0.0	1.342680e-01	1.142838e-01	0.0	1.358527e-01	1.149299e-01	0.0	1.471572e-01	1.177821e-01	0.0	1.450942e-01	1.173976e-01	0.0	1.375256e-01	1.155470e-01	0.0	1.393010e-01	1.160730e-01	0.0	1.411541e-01	1.165716e-01	0.0	1.430929e-01	1.169868e-01	0.0	1.947940e-01	1.018775e-01	0.0	1.967588e-01	9.996526e-02	0.0	1.975647e-01	9.916217e-02	0.0	1.983788e-01	9.836709e-02	0.0	1.991850e-01	9.756403e-02	0.0	1.999670e-01	9.673730e-02	0.0	2.007223e-01	9.588605e-02	0.0	2.014544e-01	9.501471e-02	0.0	2.021714e-01	9.413077e-02	0.0	2.028863e-01	9.324507e-02	0.0	2.036067e-01	9.236385e-02	0.0	2.043213e-01	9.147795e-02	0.0	2.050158e-01	9.057625e-02	0.0	2.056857e-01	8.965606e-02	0.0	2.063318e-01	8.871909e-02	0.0	2.069609e-01	8.777065e-02	0.0	2.075875e-01	8.682054e-02	0.0	2.082210e-01	8.587508e-02	0.0	2.088524e-01	8.492826e-02	0.0	2.094686e-01	8.397167e-02	0.0	2.100618e-01	8.300067e-02	0.0	2.106328e-01	8.201653e-02	0.0	2.111835e-01	8.102106e-02	0.0	2.117207e-01	8.001827e-02	0.0	2.122551e-01	7.901418e-02	0.0	2.127966e-01	7.801399e-02	0.0	2.133414e-01	7.701578e-02	0.0	2.138792e-01	7.601388e-02	0.0	2.143994e-01	7.500295e-02	0.0	2.148980e-01	7.398139e-02	0.0	2.153791e-01	7.295164e-02	0.0	2.158473e-01	7.191615e-02	0.0	2.163072e-01	7.087712e-02	0.0	2.167629e-01	6.983648e-02	0.0	2.172187e-01	6.879609e-02	0.0	2.176779e-01	6.775744e-02	0.0	2.181376e-01	6.671925e-02	0.0	2.185919e-01	6.567896e-02	0.0	2.190351e-01	6.463417e-02	0.0	2.194666e-01	6.358470e-02	0.0	2.198900e-01	6.253226e-02	0.0	2.203094e-01	6.147851e-02	0.0	2.207277e-01	6.042463e-02	0.0	2.211459e-01	5.937100e-02	0.0	2.215648e-01	5.831794e-02	0.0	2.219844e-01	5.726554e-02	0.0	2.224034e-01	5.621319e-02	0.0	2.228195e-01	5.516009e-02	0.0	2.232319e-01	5.410585e-02	0.0	2.236422e-01	5.305118e-02	0.0	2.240527e-01	5.199697e-02	0.0	2.244644e-01	5.094360e-02	0.0	2.248756e-01	4.989042e-02	0.0	2.252841e-01	4.883663e-02	0.0	2.256905e-01	4.778243e-02	0.0	2.260996e-01	4.672969e-02	0.0	2.265118e-01	4.567861e-02	0.0	2.269237e-01	4.462786e-02	0.0	2.273348e-01	4.357721e-02	0.0	2.277457e-01	4.252697e-02	0.0	2.281565e-01	4.147718e-02	0.0	2.285672e-01	4.042784e-02	0.0	2.289778e-01	3.937894e-02	0.0	2.293883e-01	3.833048e-02	0.0	2.297985e-01	3.728246e-02	0.0	2.302086e-01	3.623489e-02	0.0	2.306185e-01	3.518780e-02	0.0	2.310283e-01	3.414119e-02	0.0	2.314381e-01	3.309511e-02	0.0	2.318477e-01	3.204954e-02	0.0	2.322571e-01	3.100448e-02	0.0	2.326662e-01	2.995985e-02	0.0	2.330748e-01	2.891562e-02	0.0	2.334828e-01	2.787172e-02	0.0	2.338899e-01	2.682814e-02	0.0	2.342967e-01	2.578500e-02	0.0	2.347035e-01	2.474252e-02	0.0	2.351107e-01	2.370082e-02	0.0	2.355173e-01	2.265955e-02	0.0	2.359221e-01	2.161820e-02	0.0	2.363243e-01	2.057652e-02	0.0	2.367255e-01	1.953514e-02	0.0	2.371277e-01	1.849482e-02	0.0	2.375312e-01	1.745565e-02	0.0	2.379326e-01	1.641639e-02	0.0	2.383279e-01	1.537554e-02	0.0	2.387129e-01	1.433153e-02	0.0	2.390890e-01	1.328496e-02	0.0	2.394665e-01	1.223965e-02	0.0	2.398485e-01	1.119671e-02	0.0	2.402264e-01	1.015303e-02	0.0	2.405915e-01	9.105572e-03	0.0	2.409431e-01	8.054255e-03	0.0	2.412846e-01	7.000363e-03	0.0	2.416192e-01	5.945033e-03	0.0	2.419496e-01	4.889170e-03	0.0	2.422742e-01	3.832945e-03	0.0	2.422602e-01	2.732255e-03	0.0	2.419422e-01	1.680078e-03	0.0	2.413341e-01	7.643785e-04	0.0	2.404994e-01	6.567075e-05	0.0	2.399384e-01	-1.854203e-04	0.0	2.393286e-01	-3.867350e-04	0.0	2.386548e-01	-4.395835e-04	0.0	2.379522e-01	-3.792023e-04	0.0	2.372300e-01	-2.149890e-04	0.0	2.365616e-01	1.747354e-04	0.0	2.359167e-01	6.630787e-04	0.0	2.354249e-01	1.353202e-03	0.0	2.349178e-01	2.079569e-03	0.0	2.343947e-01	2.841773e-03	0.0	2.338623e-01	3.645286e-03	0.0	2.333062e-01	4.481493e-03	0.0	2.327249e-01	5.350267e-03	0.0	2.321232e-01	6.255708e-03	0.0	2.315035e-01	7.200159e-03	0.0	2.308540e-01	8.176365e-03	0.0	2.301761e-01	9.185842e-03	0.0	2.294727e-01	1.023072e-02	0.0	2.287393e-01	1.130830e-02	0.0	2.279716e-01	1.241558e-02	0.0	2.271667e-01	1.355016e-02	0.0	2.263294e-01	1.471501e-02	0.0	2.254650e-01	1.591336e-02	0.0	2.245706e-01	1.714238e-02	0.0	2.236306e-01	1.838922e-02	0.0	2.226368e-01	1.964578e-02	0.0	2.216237e-01	2.093732e-02	0.0	2.205754e-01	2.224939e-02	0.0	2.194738e-01	2.356494e-02	0.0	2.183413e-01	2.489972e-02	0.0	2.171928e-01	2.626373e-02	0.0	2.160156e-01	2.764337e-02	0.0	2.147941e-01	2.902177e-02	0.0	2.135287e-01	3.039514e-02	0.0	2.122276e-01	3.176667e-02	0.0	2.109020e-01	3.314275e-02	0.0	2.095663e-01	3.453298e-02	0.0	2.082260e-01	3.593860e-02	0.0	2.068687e-01	3.734316e-02	0.0	2.054855e-01	3.873341e-02	0.0	2.040861e-01	4.011394e-02	0.0	2.026820e-01	4.149165e-02	0.0	2.012786e-01	4.286716e-02	0.0	1.998787e-01	4.423873e-02	0.0	1.984819e-01	4.560131e-02	0.0	1.970869e-01	4.694882e-02	0.0	1.956932e-01	4.827634e-02	0.0	1.943050e-01	4.958369e-02	0.0	1.929321e-01	5.087686e-02	0.0	1.915775e-01	5.215524e-02	0.0	1.902393e-01	5.341279e-02	0.0	1.889153e-01	5.464362e-02	0.0	1.876032e-01	5.584167e-02	0.0	1.863010e-01	5.700123e-02	0.0	1.850101e-01	5.812080e-02	0.0	1.837401e-01	5.920827e-02	0.0	1.825003e-01	6.027217e-02	0.0	1.812953e-01	6.131572e-02	0.0	1.801212e-01	6.233275e-02	0.0	1.789740e-01	6.331689e-02	0.0	1.778504e-01	6.426325e-02	0.0	1.767493e-01	6.516925e-02	0.0	1.756701e-01	6.603310e-02	0.0	1.746129e-01	6.685416e-02	0.0	1.735824e-01	6.763796e-02	0.0	1.725846e-01	6.839231e-02	0.0	1.716242e-01	6.912373e-02	0.0	1.707017e-01	6.983357e-02	0.0	1.698054e-01	7.050686e-02	0.0	1.688616e-01	7.120076e-02	0.0	1.679178e-01	7.189504e-02	0.0	1.669758e-01	7.259179e-02	0.0	1.660316e-01	7.328582e-02	0.0	1.650813e-01	7.397137e-02	0.0	1.641229e-01	7.464572e-02	0.0	1.631581e-01	7.531075e-02	0.0	1.621886e-01	7.596873e-02	0.0	1.612160e-01	7.662184e-02	0.0	1.602416e-01	7.727213e-02	0.0	1.592670e-01	7.792163e-02	0.0	1.582921e-01	7.857036e-02	0.0	1.573151e-01	7.921538e-02	0.0	1.563337e-01	7.985300e-02	0.0	1.553495e-01	8.048577e-02	0.0	1.543679e-01	8.112173e-02	0.0	1.533830e-01	8.175187e-02	0.0	1.523930e-01	8.237309e-02	0.0	1.514034e-01	8.299380e-02	0.0	1.504141e-01	8.361417e-02	0.0	1.494244e-01	8.423267e-02	0.0	1.484336e-01	8.484831e-02	0.0	1.474404e-01	8.545878e-02	0.0	1.464413e-01	8.605822e-02	0.0	1.454344e-01	8.664293e-02	0.0	1.444244e-01	8.722072e-02	0.0	1.434164e-01	8.780022e-02	0.0	1.424082e-01	8.837789e-02	0.0	1.413955e-01	8.894565e-02	0.0	1.403734e-01	8.949448e-02	0.0	1.393386e-01	9.001652e-02	0.0	1.382962e-01	9.052133e-02	0.0	1.372554e-01	9.102686e-02	0.0	1.362109e-01	9.152214e-02	0.0	1.351631e-01	9.200780e-02	0.0	1.341159e-01	9.249182e-02	0.0	1.330567e-01	9.294636e-02	0.0	1.320148e-01	9.343553e-02	0.0	1.310009e-01	9.397835e-02	0.0	1.299865e-01	9.451742e-02	0.0	1.289946e-01	9.509367e-02	0.0	1.280359e-01	9.572161e-02	0.0	1.270951e-01	9.637271e-02	0.0	1.262321e-01	9.712220e-02	0.0	1.254107e-01	9.791150e-02	0.0	1.247290e-01	9.882539e-02	0.0	1.241545e-01	9.980474e-02	0.0	1.238457e-01	1.008975e-01	0.0	1.235755e-01	1.019995e-01	0.0	1.235461e-01	1.027315e-01	0.0	1.235724e-01	1.035154e-01	0.0	1.236680e-01	1.043459e-01	0.0	1.238757e-01	1.052153e-01	0.0	1.241697e-01	1.061192e-01	0.0	1.246764e-01	1.069957e-01	0.0	1.252599e-01	1.078996e-01	0.0	
CELLS 266	798
2	41	42	2	42	43	2	43	44	2	44	45	2	45	46	2	46	47	2	47	48	2	48	49	2	49	50	2	50	51	2	51	52	2	52	53	2	53	54	2	54	55	2	55	56	2	56	57	2	57	58	2	58	59	2	59	60	2	60	61	2	61	62	2	62	63	2	63	64	2	64	65	2	65	66	2	66	67	2	67	68	2	68	69	2	69	70	2	70	71	2	71	72	2	72	73	2	73	74	2	74	75	2	75	76	2	76	77	2	77	78	2	78	79	2	79	80	2	80	81	2	81	82	2	82	83	2	83	84	2	84	85	2	85	86	2	86	87	2	87	88	2	88	89	2	89	90	2	90	91	2	91	92	2	92	93	2	93	94	2	94	95	2	95	96	2	96	97	2	97	98	2	98	99	2	99	100	2	100	101	2	101	102	2	102	103	2	103	104	2	104	105	2	105	106	2	106	107	2	107	108	2	108	109	2	109	110	2	110	111	2	111	112	2	112	113	2	113	114	2	114	115	2	115	116	2	116	117	2	117	118	2	118	119	2	119	120	2	120	121	2	121	122	2	122	123	2	123	124	2	124	125	2	125	126	2	126	127	2	127	128	2	128	129	2	129	130	2	130	131	2	131	132	2	132	133	2	133	134	2	134	135	2	135	136	2	136	137	2	137	138	2	138	139	2	139	140	2	140	141	2	141	142	2	142	143	2	143	144	2	144	145	2	145	146	2	146	147	2	147	148	2	148	149	2	149	150	2	150	151	2	151	152	2	152	153	2	153	154	2	154	155	2	155	156	2	156	157	2	157	158	2	158	159	2	159	160	2	160	161	2	161	162	2	162	163	2	163	164	2	164	165	2	165	166	2	166	167	2	167	168	2	168	169	2	169	170	2	170	171	2	171	172	2	172	173	2	173	174	2	174	175	2	175	176	2	176	177	2	177	178	2	178	179	2	179	180	2	180	181	2	181	182	2	182	183	2	183	184	2	184	185	2	185	186	2	186	187	2	187	188	2	188	189	2	189	190	2	190	191	2	191	192	2	192	193	2	193	194	2	194	195	2	195	196	2	196	197	2	197	198	2	198	199	2	199	200	2	200	201	2	201	202	2	202	203	2	203	204	2	204	205	2	205	206	2	206	207	2	207	208	2	208	209	2	209	210	2	210	211	2	211	212	2	212	213	2	213	214	2	214	215	2	215	216	2	216	217	2	217	218	2	218	219	2	219	220	2	220	221	2	221	222	2	222	223	2	223	224	2	224	225	2	225	226	2	226	227	2	227	228	2	228	229	2	229	230	2	230	231	2	231	232	2	232	233	2	233	234	2	234	235	2	235	236	2	236	237	2	237	238	2	238	239	2	239	240	2	240	241	2	241	242	2	242	243	2	243	244	2	244	245	2	245	246	2	246	247	2	247	248	2	248	249	2	249	250	2	250	251	2	251	252	2	252	253	2	253	254	2	254	255	2	255	256	2	256	257	2	257	258	2	258	259	2	259	260	2	260	261	2	261	262	2	262	263	2	263	264	2	264	265	2	265	19	2	19	20	2	20	25	2	25	28	2	28	29	2	29	30	2	30	31	2	31	32	2	32	33	2	33	36	2	36	37	2	37	38	2	38	39	2	39	35	2	35	34	2	34	27	2	27	26	2	26	24	2	24	23	2	23	22	2	22	21	2	21	18	2	18	17	2	17	16	2	16	15	2	15	14	2	14	13	2	13	12	2	12	11	2	11	10	2	10	9	2	9	8	2	8	7	2	7	6	2	6	5	2	5	4	2	4	3	2	3	2	2	2	1	2	1	40	2	40	0	2	0	41	
CELL_TYPES 266
3	3	3	3	3	3	3	3	3	3	3	3	3	3	3	3	3	3	3	3	3	3	3	3	3	3	3	3	3	3	3	3	3	3	3	3	3	3	3	3	3	3	3	3	3	3	3	3	3	3	3	3	3	3	3	3	3	3	3	3	3	3	3	3	3	3	3	3	3	3	3	3	3	3	3	3	3	3	3	3	3	3	3	3	3	3	3	3	3	3	3	3	3	3	3	3	3	3	3	3	3	3	3	3	3	3	3	3	3	3	3	3	3	3	3	3	3	3	3	3	3	3	3	3	3	3	3	3	3	3	3	3	3	3	3	3	3	3	3	3	3	3	3	3	3	3	3	3	3	3	3	3	3	3	3	3	3	3	3	3	3	3	3	3	3	3	3	3	3	3	3	3	3	3	3	3	3	3	3	3	3	3	3	3	3	3	3	3	3	3	3	3	3	3	3	3	3	3	3	3	3	3	3	3	3	3	3	3	3	3	3	3	3	3	3	3	3	3	3	3	3	3	3	3	3	3	3	3	3	3	3	3	3	3	3	3	3	3	3	3	3	3	3	3	3	3	3	3	3	3	3	3	3	3	3	3	3	3	3	3	3	3	3	3	3	3	
POINT_DATA 266

SCALARS Density float 1
LOOKUP_TABLE default
1.460417e+00	1.557990e+00	1.623879e+00	1.648795e+00	1.648512e+00	1.679192e+00	1.746815e+00	1.801809e+00	1.815308e+00	1.827250e+00	1.881951e+00	1.945512e+00	1.966695e+00	1.989264e+00	2.042984e+00	2.072422e+00	2.089795e+00	2.139456e+00	2.174008e+00	2.601237e+00	2.594421e+00	2.185423e+00	2.228064e+00	2.275969e+00	2.286545e+00	2.585246e+00	2.290077e+00	2.319750e+00	2.571075e+00	2.549077e+00	2.525088e+00	2.507328e+00	2.483973e+00	2.464271e+00	2.362557e+00	2.394456e+00	2.447768e+00	2.432614e+00	2.418664e+00	2.405693e+00	1.492813e+00	1.463060e+00	1.472071e+00	1.454856e+00	1.405283e+00	1.347195e+00	1.305932e+00	1.288448e+00	1.291708e+00	1.302124e+00	1.297585e+00	1.268163e+00	1.226974e+00	1.192042e+00	1.174011e+00	1.176517e+00	1.190500e+00	1.196544e+00	1.185058e+00	1.163181e+00	1.144304e+00	1.136707e+00	1.142755e+00	1.161953e+00	1.188469e+00	1.212198e+00	1.226669e+00	1.233436e+00	1.238747e+00	1.248914e+00	1.265231e+00	1.285434e+00	1.307463e+00	1.329817e+00	1.351302e+00	1.370028e+00	1.384664e+00	1.395928e+00	1.406078e+00	1.417383e+00	1.430248e+00	1.443819e+00	1.457154e+00	1.469782e+00	1.481593e+00	1.492320e+00	1.501856e+00	1.510563e+00	1.519138e+00	1.527966e+00	1.536768e+00	1.544940e+00	1.552204e+00	1.559060e+00	1.566405e+00	1.573974e+00	1.580605e+00	1.586352e+00	1.591895e+00	1.597312e+00	1.602491e+00	1.607425e+00	1.612129e+00	1.616617e+00	1.620906e+00	1.625014e+00	1.628948e+00	1.632714e+00	1.636312e+00	1.639729e+00	1.642960e+00	1.646019e+00	1.648928e+00	1.651713e+00	1.654442e+00	1.657177e+00	1.659869e+00	1.662305e+00	1.664344e+00	1.666160e+00	1.668194e+00	1.670668e+00	1.673198e+00	1.675059e+00	1.675976e+00	1.676268e+00	1.677063e+00	1.680145e+00	1.684780e+00	1.688006e+00	1.689001e+00	1.689755e+00	1.692030e+00	1.695791e+00	1.700114e+00	1.702619e+00	1.662756e+00	1.614678e+00	1.622375e+00	1.660804e+00	1.682910e+00	1.648780e+00	1.596125e+00	1.525515e+00	1.409317e+00	1.324957e+00	1.259142e+00	1.338308e+00	1.595816e+00	1.699931e+00	1.780665e+00	1.847151e+00	1.895287e+00	1.937897e+00	1.982369e+00	2.022037e+00	2.054601e+00	2.086829e+00	2.118172e+00	2.145719e+00	2.168577e+00	2.189468e+00	2.212867e+00	2.238785e+00	2.260453e+00	2.272044e+00	2.286810e+00	2.307478e+00	2.319474e+00	2.328325e+00	2.344659e+00	2.364208e+00	2.378768e+00	2.387631e+00	2.393982e+00	2.400374e+00	2.409870e+00	2.424073e+00	2.438707e+00	2.448883e+00	2.456337e+00	2.464881e+00	2.475109e+00	2.486343e+00	2.497819e+00	2.508506e+00	2.517738e+00	2.525761e+00	2.534340e+00	2.544275e+00	2.554311e+00	2.563518e+00	2.571484e+00	2.577664e+00	2.581895e+00	2.585501e+00	2.590272e+00	2.596719e+00	2.603686e+00	2.609861e+00	2.614921e+00	2.618895e+00	2.621813e+00	2.623521e+00	2.624537e+00	2.625963e+00	2.628593e+00	2.632589e+00	2.635448e+00	2.636336e+00	2.638016e+00	2.641067e+00	2.644294e+00	2.646704e+00	2.648163e+00	2.649165e+00	2.650170e+00	2.651293e+00	2.652617e+00	2.654274e+00	2.656254e+00	2.658163e+00	2.659475e+00	2.660417e+00	2.662243e+00	2.664231e+00	2.665128e+00	2.666199e+00	2.667962e+00	2.669777e+00	2.671579e+00	2.673346e+00	2.674638e+00	2.675025e+00	2.675251e+00	2.676481e+00	2.678381e+00	2.679934e+00	2.680600e+00	2.679889e+00	2.678449e+00	2.678211e+00	2.678390e+00	2.677698e+00	2.677358e+00	2.674648e+00	2.672371e+00	2.676122e+00	2.678122e+00	2.678615e+00	2.683185e+00	2.686974e+00	2.695056e+00	2.705595e+00	2.720626e+00	2.739570e+00	2.755820e+00	2.757694e+00	2.759465e+00	2.751824e+00	2.742903e+00	2.732532e+00	2.719020e+00	2.693350e+00	2.665957e+00	2.633919e+00	
SCALARS X-Momentum float 1
LOOKUP_TABLE default
0.000000e+00	0.000000e+00	0.000000e+00	0.000000e+00	0.000000e+00	0.000000e+00	0.000000e+00	0.000000e+00	0.000000e+00	0.000000e+00	0.000000e+00	0.000000e+00	0.000000e+00	0.000000e+00	0.000000e+00	0.000000e+00	0.000000e+00	0.000000e+00	0.000000e+00	0.000000e+00	0.000000e+00	0.000000e+00	0.000000e+00	0.000000e+00	0.000000e+00	0.000000e+00	0.000000e+00	0.000000e+00	0.000000e+00	0.000000e+00	0.000000e+00	0.000000e+00	0.000000e+00	0.000000e+00	0.000000e+00	0.000000e+00	0.000000e+00	0.000000e+00	0.000000e+00	0.000000e+00	0.000000e+00	0.000000e+00	0.000000e+00	0.000000e+00	0.000000e+00	0.000000e+00	0.000000e+00	0.000000e+00	0.000000e+00	0.000000e+00	0.000000e+00	0.000000e+00	0.000000e+00	0.000000e+00	0.000000e+00	0.000000e+00	0.000000e+00	0.000000e+00	0.000000e+00	0.000000e+00	0.000000e+00	0.000000e+00	0.000000e+00	0.000000e+00	0.000000e+00	0.000000e+00	0.000000e+00	0.000000e+00	0.000000e+00	0.000000e+00	0.000000e+00	0.000000e+00	0.000000e+00	0.000000e+00	0.000000e+00	0.000000e+00	0.000000e+00	0.000000e+00	0.000000e+00	0.000000e+00	0.000000e+00	0.000000e+00	0.000000e+00	0.000000e+00	0.000000e+00	0.000000e+00	0.000000e+00	0.000000e+00	0.000000e+00	0.000000e+00	0.000000e+00	0.000000e+00	0.000000e+00	0.000000e+00	0.000000e+00	0.000000e+00	0.000000e+00	0.000000e+00	0.000000e+00	0.000000e+00	0.000000e+00	0.000000e+00	0.000000e+00	0.000000e+00	0.000000e+00	0.000000e+00	0.000000e+00	0.000000e+00	0.000000e+00	0.000000e+00	0.000000e+00	0.000000e+00	0.000000e+00	0.000000e+00	0.000000e+00	0.000000e+00	0.000000e+00	0.000000e+00	0.000000e+00	0.000000e+00	0.000000e+00	0.000000e+00	0.000000e+00	0.000000e+00	0.000000e+00	0.000000e+00	0.000000e+00	0.000000e+00	0.000000e+00	0.000000e+00	0.000000e+00	0.000000e+00	0.000000e+00	0.000000e+00	0.000000e+00	0.000000e+00	0.000000e+00	0.000000e+00	0.000000e+00	0.000000e+00	0.000000e+00	0.000000e+00	0.000000e+00	0.000000e+00	0.000000e+00	0.000000e+00	0.000000e+00	0.000000e+00	0.000000e+00	0.000000e+00	0.000000e+00	0.000000e+00	0.000000e+00	0.000000e+00	0.000000e+00	0.000000e+00	0.000000e+00	0.000000e+00	0.000000e+00	0.000000e+00	0.000000e+00	0.000000e+00	0.000000e+00	0.000000e+00	0.000000e+00	0.000000e+00	0.000000e+00	0.000000e+00	0.000000e+00	0.000000e+00	0.000000e+00	0.000000e+00	0.000000e+00	0.000000e+00	0.000000e+00	0.000000e+00	0.000000e+00	0.000000e+00	0.000000e+00	0.000000e+00	0.000000e+00	0.000000e+00	0.000000e+00	0.000000e+00	0.000000e+00	0.000000e+00	0.000000e+00	0.000000e+00	0.000000e+00	0.000000e+00	0.000000e+00	0.000000e+00	0.000000e+00	0.000000e+00	0.000000e+00	0.000000e+00	0.000000e+00	0.000000e+00	0.000000e+00	0.000000e+00	0.000000e+00	0.000000e+00	0.000000e+00	0.000000e+00	0.000000e+00	0.000000e+00	0.000000e+00	0.000000e+00	0.000000e+00	0.000000e+00	0.000000e+00	0.000000e+00	0.000000e+00	0.000000e+00	0.000000e+00	0.000000e+00	0.000000e+00	0.000000e+00	0.000000e+00	0.000000e+00	0.000000e+00	0.000000e+00	0.000000e+00	0.000000e+00	0.000000e+00	0.000000e+00	0.000000e+00	0.000000e+00	0.000000e+00	0.000000e+00	0.000000e+00	0.000000e+00	0.000000e+00	0.000000e+00	0.000000e+00	0.000000e+00	0.000000e+00	0.000000e+00	0.000000e+00	0.000000e+00	0.000000e+00	0.000000e+00	0.000000e+00	0.000000e+00	0.000000e+00	0.000000e+00	0.000000e+00	0.000000e+00	0.000000e+00	0.000000e+00	0.000000e+00	0.000000e+00	0.000000e+00	0.000000e+00	0.000000e+00	0.000000e+00	0.000000e+00	0.000000e+00	0.000000e+00	0.000000e+00	0.000000e+00	0.000000e+00	0.000000e+00	0.000000e+00	0.000000e+00	0.000000e+00	
SCALARS Y-Momentum float 1
LOOKUP_TABLE default
0.000000e+00	0.000000e+00	0.000000e+00	0.000000e+00	0.000000e+00	0.000000e+00	0.000000e+00	0.000000e+00	0.000000e+00	0.000000e+00	0.000000e+00	0.000000e+00	0.000000e+00	0.000000e+00	0.000000e+00	0.000000e+00	0.000000e+00	0.000000e+00	0.000000e+00	0.000000e+00	0.000000e+00	0.000000e+00	0.000000e+00	0.000000e+00	0.000000e+00	0.000000e+00	0.000000e+00	0.000000e+00	0.000000e+00	0.000000e+00	0.000000e+00	0.000000e+00	0.000000e+00	0.000000e+00	0.000000e+00	0.000000e+00	0.000000e+00	0.000000e+00	0.000000e+00	0.000000e+00	0.000000e+00	0.000000e+00	0.000000e+00	0.000000e+00	0.000000e+00	0.000000e+00	0.000000e+00	0.000000e+00	0.000000e+00	0.000000e+00	0.000000e+00	0.000000e+00	0.000000e+00	0.000000e+00	0.000000e+00	0.000000e+00	0.000000e+00	0.000000e+00	0.000000e+00	0.000000e+00	0.000000e+00	0.000000e+00	0.000000e+00	0.000000e+00	0.000000e+00	0.000000e+00	0.000000e+00	0.000000e+00	0.000000e+00	0.000000e+00	0.000000e+00	0.000000e+00	0.000000e+00	0.000000e+00	0.000000e+00	0.000000e+00	0.000000e+00	0.000000e+00	0.000000e+00	0.000000e+00	0.000000e+00	0.000000e+00	0.000000e+00	0.000000e+00	0.000000e+00	0.000000e+00	0.000000e+00	0.000000e+00	0.000000e+00	0.000000e+00	0.000000e+00	0.000000e+00	0.000000e+00	0.000000e+00	0.000000e+00	0.000000e+00	0.000000e+00	0.000000e+00	0.000000e+00	0.000000e+00	0.000000e+00	0.000000e+00	0.000000e+00	0.000000e+00	0.000000e+00	0.000000e+00	0.000000e+00	0.000000e+00	0.000000e+00	0.000000e+00	0.000000e+00	0.000000e+00	0.000000e+00	0.000000e+00	0.000000e+00	0.000000e+00	0.000000e+00	0.000000e+00	0.000000e+00	0.000000e+00	0.000000e+00	0.000000e+00	0.000000e+00	0.000000e+00	0.000000e+00	0.000000e+00	0.000000e+00	0.000000e+00	0.000000e+00	0.000000e+00	0.000000e+00	0.000000e+00	0.000000e+00	0.000000e+00	0.000000e+00	0.000000e+00	0.000000e+00	0.000000e+00	0.000000e+00	0.000000e+00	0.000000e+00	0.000000e+00	0.000000e+00	0.000000e+00	0.000000e+00	0.000000e+00	0.000000e+00	0.000000e+00	0.000000e+00	0.000000e+00	0.000000e+00	0.000000e+00	0.000000e+00	0.000000e+00	0.000000e+00	0.000000e+00	0.000000e+00	0.000000e+00	0.000000e+00	0.000000e+00	0.000000e+00	0.000000e+00	0.000000e+00	0.000000e+00	0.000000e+00	0.000000e+00	0.000000e+00	0.000000e+00	0.000000e+00	0.000000e+00	0.000000e+00	0.000000e+00	0.000000e+00	0.000000e+00	0.000000e+00	0.000000e+00	0.000000e+00	0.000000e+00	0.000000e+00	0.000000e+00	0.000000e+00	0.000000e+00	0.000000e+00	0.000000e+00	0.000000e+00	0.000000e+00	0.000000e+00	0.000000e+00	0.000000e+00	0.000000e+00	0.000000e+00	0.000000e+00	0.000000e+00	0.000000e+00	0.000000e+00	0.000000e+00	0.000000e+00	0.000000e+00	0.000000e+00	0.000000e+00	0.000000e+00	0.000000e+00	0.000000e+00	0.000000e+00	0.000000e+00	0.000000e+00	0.000000e+00	0.000000e+00	0.000000e+00	0.000000e+00	0.000000e+00	0.000000e+00	0.000000e+00	0.000000e+00	0.000000e+00	0.000000e+00	0.000000e+00	0.000000e+00	0.000000e+00	0.000000e+00	0.000000e+00	0.000000e+00	0.000000e+00	0.000000e+00	0.000000e+00	0.000000e+00	0.000000e+00	0.000000e+00	0.000000e+00	0.000000e+00	0.000000e+00	0.000000e+00	0.000000e+00	0.000000e+00	0.000000e+00	0.000000e+00	0.000000e+00	0.000000e+00	0.000000e+00	0.000000e+00	0.000000e+00	0.000000e+00	0.000000e+00	0.000000e+00	0.000000e+00	0.000000e+00	0.000000e+00	0.000000e+00	0.000000e+00	0.000000e+00	0.000000e+00	0.000000e+00	0.000000e+00	0.000000e+00	0.000000e+00	0.000000e+00	0.000000e+00	0.000000e+00	0.000000e+00	0.000000e+00	0.000000e+00	0.000000e+00	0.000000e+00	0.000000e+00	0.000000e+00	0.000000e+00	
SCALARS Energy float 1
LOOKUP_TABLE default
1.967853e+06	2.112304e+06	2.207282e+06	2.236899e+06	2.229921e+06	2.274086e+06	2.374995e+06	2.453013e+06	2.465168e+06	2.478250e+06	2.560045e+06	2.653489e+06	2.677249e+06	2.706493e+06	2.786834e+06	2.825992e+06	2.846880e+06	2.921430e+06	2.969788e+06	3.579935e+06	3.570760e+06	2.980930e+06	3.044925e+06	3.116419e+06	3.125725e+06	3.558245e+06	3.126540e+06	3.171436e+06	3.538162e+06	3.505166e+06	3.468741e+06	3.443110e+06	3.407780e+06	3.378367e+06	3.236726e+06	3.282708e+06	3.354105e+06	3.332105e+06	3.312304e+06	3.294954e+06	2.015767e+06	1.974171e+06	1.992619e+06	1.972579e+06	1.902360e+06	1.817629e+06	1.757174e+06	1.731754e+06	1.737867e+06	1.756258e+06	1.753317e+06	1.712525e+06	1.653054e+06	1.601910e+06	1.575144e+06	1.579182e+06	1.601430e+06	1.612457e+06	1.596877e+06	1.564841e+06	1.536423e+06	1.524044e+06	1.531463e+06	1.558586e+06	1.597072e+06	1.631567e+06	1.651859e+06	1.659992e+06	1.665514e+06	1.678375e+06	1.700662e+06	1.728880e+06	1.759922e+06	1.791564e+06	1.822057e+06	1.848430e+06	1.868485e+06	1.883291e+06	1.896432e+06	1.911549e+06	1.929257e+06	1.948168e+06	1.966780e+06	1.984365e+06	2.000779e+06	2.015573e+06	2.028551e+06	2.040283e+06	2.051898e+06	2.064030e+06	2.076216e+06	2.087457e+06	2.097284e+06	2.106515e+06	2.116643e+06	2.127242e+06	2.136382e+06	2.144156e+06	2.151678e+06	2.159063e+06	2.166122e+06	2.172841e+06	2.179240e+06	2.185340e+06	2.191169e+06	2.196752e+06	2.202099e+06	2.207218e+06	2.212108e+06	2.216748e+06	2.221124e+06	2.225257e+06	2.229176e+06	2.232919e+06	2.236602e+06	2.240329e+06	2.244027e+06	2.247344e+06	2.250030e+06	2.252352e+06	2.255043e+06	2.258493e+06	2.262092e+06	2.264637e+06	2.265620e+06	2.265491e+06	2.266070e+06	2.270380e+06	2.277318e+06	2.282020e+06	2.283088e+06	2.283796e+06	2.287145e+06	2.293341e+06	2.301464e+06	2.308897e+06	2.244781e+06	2.170294e+06	2.186757e+06	2.251841e+06	2.295592e+06	2.243981e+06	2.165946e+06	2.079190e+06	1.950027e+06	1.802913e+06	1.673608e+06	1.790610e+06	2.181401e+06	2.312267e+06	2.421325e+06	2.511717e+06	2.575327e+06	2.632771e+06	2.694701e+06	2.749342e+06	2.793204e+06	2.837573e+06	2.881042e+06	2.918738e+06	2.949392e+06	2.977528e+06	3.010239e+06	3.047147e+06	3.077056e+06	3.090811e+06	3.110847e+06	3.140920e+06	3.156404e+06	3.167235e+06	3.190872e+06	3.219526e+06	3.239609e+06	3.250617e+06	3.258176e+06	3.266305e+06	3.279719e+06	3.300751e+06	3.322110e+06	3.335875e+06	3.345395e+06	3.357079e+06	3.371642e+06	3.387784e+06	3.404224e+06	3.419305e+06	3.432032e+06	3.442905e+06	3.454888e+06	3.469204e+06	3.483647e+06	3.496705e+06	3.507792e+06	3.516089e+06	3.521391e+06	3.525943e+06	3.532655e+06	3.542224e+06	3.552600e+06	3.561576e+06	3.568714e+06	3.574150e+06	3.577990e+06	3.579987e+06	3.581015e+06	3.582889e+06	3.586866e+06	3.593156e+06	3.597460e+06	3.598419e+06	3.600821e+06	3.605581e+06	3.610609e+06	3.614223e+06	3.616253e+06	3.617592e+06	3.619026e+06	3.620719e+06	3.622790e+06	3.625440e+06	3.628640e+06	3.631715e+06	3.633772e+06	3.635227e+06	3.638231e+06	3.641524e+06	3.642945e+06	3.644706e+06	3.647687e+06	3.650756e+06	3.653808e+06	3.656821e+06	3.659052e+06	3.659787e+06	3.660327e+06	3.662661e+06	3.666183e+06	3.669129e+06	3.670604e+06	3.669812e+06	3.667904e+06	3.668191e+06	3.669289e+06	3.668965e+06	3.669352e+06	3.665753e+06	3.662895e+06	3.670349e+06	3.674892e+06	3.676858e+06	3.685854e+06	3.693556e+06	3.708685e+06	3.728174e+06	3.755623e+06	3.790104e+06	3.819429e+06	3.820862e+06	3.823110e+06	3.810931e+06	3.797212e+06	3.782521e+06	3.764370e+06	3.725238e+06	3.683366e+06	3.632803e+06	
SCALARS TKE float 1
LOOKUP_TABLE default
1.000000e-10	1.000000e-10	1.000000e-10	1.000000e-10	1.000000e-10	1.000000e-10	1.000000e-10	1.000000e-10	1.000000e-10	1.000000e-10	1.000000e-10	1.000000e-10	1.000000e-10	1.000000e-10	1.000000e-10	1.000000e-10	1.000000e-10	1.000000e-10	1.000000e-10	1.000000e-10	1.000000e-10	1.000000e-10	1.000000e-10	1.000000e-10	1.000000e-10	1.000000e-10	1.000000e-10	1.000000e-10	1.000000e-10	1.000000e-10	1.000000e-10	1.000000e-10	1.000000e-10	1.000000e-10	1.000000e-10	1.000000e-10	1.000000e-10	1.000000e-10	1.000000e-10	1.000000e-10	1.000000e-10	1.000000e-10	1.000000e-10	1.000000e-10	1.000000e-10	1.000000e-10	1.000000e-10	1.000000e-10	1.000000e-10	1.000000e-10	1.000000e-10	1.000000e-10	1.000000e-10	1.000000e-10	1.000000e-10	1.000000e-10	1.000000e-10	1.000000e-10	1.000000e-10	1.000000e-10	1.000000e-10	1.000000e-10	1.000000e-10	1.000000e-10	1.000000e-10	1.000000e-10	1.000000e-10	1.000000e-10	1.000000e-10	1.000000e-10	1.000000e-10	1.000000e-10	1.000000e-10	1.000000e-10	1.000000e-10	1.000000e-10	1.000000e-10	1.000000e-10	1.000000e-10	1.000000e-10	1.000000e-10	1.000000e-10	1.000000e-10	1.000000e-10	1.000000e-10	1.000000e-10	1.000000e-10	1.000000e-10	1.000000e-10	1.000000e-10	1.000000e-10	1.000000e-10	1.000000e-10	1.000000e-10	1.000000e-10	1.000000e-10	1.000000e-10	1.000000e-10	1.000000e-10	1.000000e-10	1.000000e-10	1.000000e-10	1.000000e-10	1.000000e-10	1.000000e-10	1.000000e-10	1.000000e-10	1.000000e-10	1.000000e-10	1.000000e-10	1.000000e-10	1.000000e-10	1.000000e-10	1.000000e-10	1.000000e-10	1.000000e-10	1.000000e-10	1.000000e-10	1.000000e-10	1.000000e-10	1.000000e-10	1.000000e-10	1.000000e-10	1.000000e-10	1.000000e-10	1.000000e-10	1.000000e-10	1.000000e-10	1.000000e-10	1.000000e-10	1.000000e-10	1.000000e-10	1.000000e-10	1.000000e-10	1.000000e-10	1.000000e-10	1.000000e-10	1.000000e-10	1.000000e-10	1.000000e-10	1.000000e-10	1.000000e-10	1.000000e-10	1.000000e-10	1.000000e-10	1.000000e-10	1.000000e-10	1.000000e-10	1.000000e-10	1.000000e-10	1.000000e-10	1.000000e-10	1.000000e-10	1.000000e-10	1.000000e-10	1.000000e-10	1.000000e-10	1.000000e-10	1.000000e-10	1.000000e-10	1.000000e-10	1.000000e-10	1.000000e-10	1.000000e-10	1.000000e-10	1.000000e-10	1.000000e-10	1.000000e-10	1.000000e-10	1.000000e-10	1.000000e-10	1.000000e-10	1.000000e-10	1.000000e-10	1.000000e-10	1.000000e-10	1.000000e-10	1.000000e-10	1.000000e-10	1.000000e-10	1.000000e-10	1.000000e-10	1.000000e-10	1.000000e-10	1.000000e-10	1.000000e-10	1.000000e-10	1.000000e-10	1.000000e-10	1.000000e-10	1.000000e-10	1.000000e-10	1.000000e-10	1.000000e-10	1.000000e-10	1.000000e-10	1.000000e-10	1.000000e-10	1.000000e-10	1.000000e-10	1.000000e-10	1.000000e-10	1.000000e-10	1.000000e-10	1.000000e-10	1.000000e-10	1.000000e-10	1.000000e-10	1.000000e-10	1.000000e-10	1.000000e-10	1.000000e-10	1.000000e-10	1.000000e-10	1.000000e-10	1.000000e-10	1.000000e-10	1.000000e-10	1.000000e-10	1.000000e-10	1.000000e-10	1.000000e-10	1.000000e-10	1.000000e-10	1.000000e-10	1.000000e-10	1.000000e-10	1.000000e-10	1.000000e-10	1.000000e-10	1.000000e-10	1.000000e-10	1.000000e-10	1.000000e-10	1.000000e-10	1.000000e-10	1.000000e-10	1.000000e-10	1.000000e-10	1.000000e-10	1.000000e-10	1.000000e-10	1.000000e-10	1.000000e-10	1.000000e-10	1.000000e-10	1.000000e-10	1.000000e-10	1.000000e-10	1.000000e-10	1.000000e-10	1.000000e-10	1.000000e-10	1.000000e-10	1.000000e-10	1.000000e-10	1.000000e-10	1.000000e-10	1.000000e-10	1.000000e-10	1.000000e-10	1.000000e-10	1.000000e-10	1.000000e-10	1.000000e-10	1.000000e-10	
SCALARS Omega float 1
LOOKUP_TABLE default